# OOMMF OVF 2.0
# 
# Segment count: 1
# 
# Begin: Segment
# Begin: Header
# 
# Title: Field generated omf file
# Desc: File generated by Field class
# meshunit: m
# meshtype: rectangular
# xbase: 2.5
# ybase: 2.5
# zbase: 2.5
# xnodes: 2
# ynodes: 2
# znodes: 2
# xstepsize: 5
# ystepsize: 5
# zstepsize: 5
# xmin: 0
# ymin: 0
# zmin: 0
# xmax: 10
# ymax: 10
# zmax: 10
# valuedim: 1
# valuelabels: field_x field_y field_z
# valueunits: A/m A/m A/m
# 
# End: Header
# 
# Begin: Data Text
 -3.1
 -3.1
 -3.1
 -3.1
 -3.1
 -3.1
 -3.1
 -3.1
# End: Data Text
# End: Segment
