# OOMMF: rectangular mesh v1.0
# Segment count: 1
# Begin: Segment
# Begin: Header
# Title: C:/Users/donahue/projects/oommf/app/oxs/examples/sp3-random-seed0000-Oxs_MinDriver-Magnetization-00-0003153.omf
# Desc: Oxs vector field output
# Desc: MIF source file: C:/Users/donahue/projects/oommf/app/oxs/examples/stdprob3.mif
# Desc: Iteration: 3153, State id: 7023
# Desc: Stage: 0, Stage iteration: 3153
# Desc: Stage simulation time: -1 s
# Desc: Total simulation time: -2 s
# meshtype: rectangular
# meshunit: m
# xbase: 1.5624999999999999e-09
# ybase: 1.5624999999999999e-09
# zbase: 1.5624999999999999e-09
# xstepsize: 3.1249999999999999e-09
# ystepsize: 3.1249999999999999e-09
# zstepsize: 3.1249999999999999e-09
# xnodes: 32
# ynodes: 32
# znodes: 32
# xmin: 0
# ymin: 0
# zmin: 0
# xmax: 9.9999999999999995e-08
# ymax: 9.9999999999999995e-08
# zmax: 9.9999999999999995e-08
# valueunit: A/m
# valuemultiplier: 1
# ValueRangeMinMag: 1261566.2610100801
# ValueRangeMaxMag: 1261566.2610100803
# End: Header
# Begin: Data Text
-212694.86392631286 -966110.05482008203  782905.92522592342
-214478.09001421178 -962321.29731170670  787074.52033662179
-216493.62352659713 -955597.15248707973  794678.56649708538
-218576.69922145127 -946346.57628668007  805109.81550772768
-220732.26113613570 -934888.93254042324  817807.66909225704
-222989.39564022052 -921510.21378866292  832252.41737956856
-225362.74230339841 -906476.67499994906  847974.70656941319
-227841.89433224374 -890037.26492834266  864564.14981476299
-230391.87381334338 -872422.09415778262  881673.80874395918
-232958.40593295216 -853839.61909993307  899020.42072436376
-235475.03562275655 -834473.89144041506  916381.06867269217
-237870.55934246388 -814482.64778289408  933587.19163108873
-240075.96253048716 -793996.67999711086  950516.82535743644
-242030.44515639188 -773120.70186976658  967085.86737515265
-243686.33776052622 -751935.77190232766  983239.03230164095
-245012.83199980992 -730503.22828764049  998941.02755654289
-245998.51013920599 -708870.02760748088  1014168.3528330064
-246652.67926831322 -687075.34192282881  1028902.0173225165
-247005.51327261757 -665158.24774059979  1043121.3797035028
-247106.98935218118 -643166.32462557929  1056799.2456469105
-247024.58444543471 -621164.96232085291  1069898.3013274893
-246839.67762741161 -599247.14683496358  1082368.9119140040
-246642.59215508294 -577543.45396744017  1094148.2630033894
-246526.20928148107 -556231.91943456710  1105160.7624496964
-246578.09565033673 -535547.37308109191  1115319.5438305333
-246871.10091865828 -515789.70691263222  1124528.8207481140
-247452.37981483771 -497330.35496071749  1132686.7478158178
-248330.69428095774 -480615.89376163512  1139688.4047232368
-249461.38249659634 -466166.81789026863  1145428.7177558898
-250726.51096364600 -454567.19735550910  1149806.2057178624
-251900.77284544549 -446433.14504462003  1152732.7871473033
-252579.56263364980 -442315.72630094428  1154170.6085867961
-202896.12945088255 -982001.56287662103  765542.63243837573
-206619.15047374723 -978475.33265802148  769053.95191510115
-210340.66688800260 -971997.47183610254  776226.22315681214
-213735.30069818688 -963067.63460030977  786363.39140360139
-216917.52916953003 -952019.99679543788  798845.50581420597
-220009.88766653204 -939132.93635071756  813126.31743732945
-223086.27711407561 -924660.47418092575  828724.89486550412
-226172.59215228807 -908838.93651358143  845226.10995811666
-229256.51767801668 -891886.41430603864  862281.56886101898
-232298.43065712892 -874000.21509605355  879608.14800980594
-235241.73771984872 -855354.19527344219  896983.81054599956
-238022.14278618860 -836096.84666182217  914241.18998466805
-240575.63725577918 -816350.59233228909  931259.63301146601
-242845.13514883001 -796212.51378179318  947956.38304237265
-244785.75125147196 -775756.58188403898  964277.49769804254
-246368.76226934034 -755037.36607199442  980188.98164175067
-247584.30776936823 -734095.13518639503  995668.50606061902
-248442.88417542930 -712962.22791649215  1010697.9894043026
-248975.66878968303 -691670.54896914517  1025257.2355064872
-249233.68747371453 -670260.02934311866  1039318.7639084408
-249285.81643149501 -648787.86617702327  1052843.9187963721
-249215.59190839343 -627338.32226756657  1065780.3005700645
-249116.79919139843 -606032.81263243291  1078060.5183812310
-249087.83312778955 -585039.92937275663  1089602.2041764490
-249224.87776848022 -564584.94905069796  1100309.1504325774
-249614.06119207814 -544958.20818612329  1110073.3321293329
-250322.92703246136 -526521.46792335808  1118777.4608637262
-251391.83098133607 -509710.86040297739  1126297.6591567886
-252825.96934630757 -495033.74731234321  1132506.0923301706
-254586.55610598475 -483053.46806330717  1137275.0165905603
-256560.41323764832 -474348.12605198642  1140491.1400748582
-258356.41144254216 -469441.99454235047  1142114.5342502147
-192166.75688009165 -1006821.2065610874  735481.08506474691
-197081.57225053429 -1003761.2088687184  738357.44756088126
-202460.99755587836 -997821.04555067595  744924.24879566627
-207483.98140181674 -989484.72071464080  754599.10936395451
-212125.66522676562 -979110.63377782376  766742.78600730491
-216499.82849322600 -966986.05227294948  780778.60491366824
-220703.37148205715 -953361.70041798113  796204.06989134545
-224787.17055935899 -938464.52334847779  812591.22397869010
-228759.18850368250 -922500.67987860437  829584.93249190727
-232595.12751336701 -905654.79520566890  846899.24400543189
-236249.87297880847 -888088.18792650884  864311.74867744383
-239667.84841415138 -869937.36436014285  881656.24562275549
-242791.80001404614 -851313.43192611041  898814.22629322053
-245569.95690010404 -832302.75438171555  915705.71268046822
-247961.65045421544 -812968.98276821256  932279.93858057051
-249941.51584195034 -793356.48251523124  948506.27896110527
-251502.39952768289 -773495.10994235100  964365.74433460773
-252657.07856823914 -753406.25260949298  979843.27833446744
-253438.87026436080 -733110.02393913164  994921.03342830355
-253901.18055477279 -712633.48150054680  1009572.7524434561
-254116.01336417499 -692019.70993633312  1023759.3485436337
-254171.44680837682 -671337.56484223239  1037425.7470190296
-254168.08498905922 -650691.80524858343  1050499.0195494175
-254214.52517583102 -630233.24186440289  1062887.7960338357
-254421.95118504582 -610168.38365709141  1074482.8734137367
-254898.07982127796 -590767.85366397840  1085158.8560665373
-255740.81036102548 -572372.51363793132  1094776.5865539124
-257031.80569263324 -555395.68239927466  1103186.1664078196
-258828.63090831396 -540318.95442385389  1110230.8760935240
-261145.27556164277 -527678.75177516264  1115754.3237181709
-263868.97894417407 -518050.61491887504  1119618.7535282215
-266380.11422947753 -512142.07068153395  1121740.4178775386
-183481.34161528305 -1036857.9199951378  694845.07765498746
-188999.69369727289 -1034231.5645589078  697275.85471700155
-195554.24620770829 -1028915.8132426944  703306.63082912425
-201997.62764549282 -1021308.4382009284  712513.48296304303
-208092.63987021209 -1011755.8485964580  724290.67851357965
-213855.89942151366 -1000546.3963350275  738052.83955998649
-219348.54711891653 -987928.61740013235  753281.28392894333
-224612.48962842944 -974122.54754530778  769534.87431416090
-229657.10092776205 -959324.30245276820  786450.20798262826
-234463.00273641408 -943706.89945303614  803737.40686340805
-238990.84416761916 -927419.53104920452  821173.44133348344
-243190.69188309321 -910586.63898418238  838593.87739469332
-247010.48798499684 -893307.56360220350  855883.66414803243
-250403.10815799065 -875657.19007923221  872967.46778234234
-253331.96262157802 -857687.79704015621  889799.97215197596
-255775.23146120663 -839432.18281165743  906356.48193741939
-257728.86806122895 -820908.06831213622  922624.08643329272
-259208.49985480477 -802123.73254554125  938593.57669290726
-260250.33111825827 -783084.81035436783  954252.26007804356
-260911.12076747100 -763802.15932163433  969577.78408667399
-261267.27804309083 -744300.67074675777  984533.06286220485
-261413.09688827556 -724628.84872825269  999062.38808444864
-261458.14147024730 -704868.90178270277  1013088.7929878228
-261523.80390126337 -685146.97584449558  1026512.7141945730
-261739.07323081428 -665642.99912698811  1039211.9544041324
-262235.53804406687 -646599.40753269917  1051042.8914578392
-263141.42686544580 -628327.79944003443  1061842.8305719332
-264573.49707039830 -611212.48609858635  1071433.4288251782
-266621.87318000750 -595710.71505045460  1079625.3755979496
-269309.85874522716 -582354.56659973867  1086225.0179691175
-272465.06076397782 -571785.97449898126  1091042.1719384112
-275283.18212308793 -564996.27234788600  1093868.2794523910
-178067.40066500710 -1069310.2046684595  645303.89579736651
-183826.96166790999 -1067011.0044357614  647491.00032037997
-191097.71576541060 -1062265.9224927858  653163.22910796735
-198596.91278897729 -1055390.5462072315  662011.70089813566
-205917.45357762519 -1046695.9470751339  673479.79005130415
-212955.27592952762 -1036455.9546202731  686992.38387693267
-219699.91684403035 -1024909.9930566294  702026.26987196109
-226154.27695634341 -1012268.9781678886  718133.12816792249
-232307.73091426023 -998718.82811802928  734944.38663001661
-238131.48929332313 -984421.56526569859  752168.20363913896
-243582.63506224146 -969515.07748427941  769582.64360998943
-248610.89807408524 -954112.54072326457  787026.88131495647
-253165.64139657683 -938302.20892785524  804391.41818913107
-257202.05938714577 -922148.00707789639  821607.92632996710
-260686.26569728716 -905691.16670065629  838639.14310993231
-263599.24215853988 -888953.01527205366  855469.11521756358
-265939.73369045631 -871938.95402680198  872094.00262486015
-267726.20449432282 -854643.61648708873  888513.58973506291
-268997.96090710507 -837057.17527677480  904723.61153251631
-269815.51844539284 -819172.74468144297  920708.98295610666
-270260.25605644274 -800994.79700338270  936438.01721671305
-270433.36512323224 -782548.46208390954  951857.72594289854
-270454.06591177167 -763889.50253469835  966890.30249973806
-270457.02097098966 -745114.65031916078  981430.88834935566
-270588.79352256691 -726371.86264228786  995346.69984911720
-271002.98900014238 -707869.94970845070  1008477.5382583878
-271853.13057177531 -689887.08258690813  1020637.6044399912
-273280.67914857087 -672778.33559557644  1031618.3463259537
-275391.04079146188 -656985.01967310975  1041191.5719481560
-278197.43297342246 -643057.67820890644  1049110.3095969092
-281473.34283062792 -631737.44197766716  1055097.1484172533
-284329.13071221608 -624283.69886477990  1058761.6538575136
-176365.32659433104 -1102003.8055031528  588245.11485502229
-182137.86290849911 -1099921.1882194872  590380.05515084078
-189768.41262612178 -1095641.3834786189  595908.83472002146
-197961.37671817670 -1089427.6279147668  604572.71504989557
-206204.87418506184 -1081552.2364323779  615852.04444687697
-214289.39434610633 -1072264.7036202287  629188.28005610150
-222123.92396062572 -1061787.8239778848  644062.89302799955
-229656.39150753769 -1050319.2025242944  660027.98847277684
-236840.82965861613 -1038032.8006749714  676715.41806615214
-243626.69321176052 -1025079.3622613094  693835.54704238346
-249958.32487002717 -1011586.0064349181  711170.87843371206
-255778.58248028616 -997655.60332501808  728567.11757910391
-261033.71639949534 -983366.47743449348  745923.05292147759
-265678.15804314392 -968772.81742225599  763180.04132806091
-269678.67166710226 -953906.01880812808  780311.57382705016
-273017.70625555783 -938777.07719115925  797313.21469691664
-275695.95895382139 -923380.08312733297  814193.09209747403
-277734.22667000833 -907696.83486221253  830963.04745523247
-279174.63053588272 -891702.56851316686  847630.51260034752
-280081.27552293456 -875372.79355542839  864191.17232436757
-280540.36771705170 -858691.20271675126  880622.47948652413
-280659.75904349698 -841658.58955620090  896878.11278839142
-280567.81971127691 -824302.64932059706  912883.49299593444
-280411.43488224305 -806688.46438006556  928532.48706890515
-280352.73944425228 -788929.41327364522  943685.41012180469
-280563.83694753394 -771198.27634355414  958168.34788097779
-281217.94695876993 -753738.66206161352  971773.59839667217
-282473.60434659739 -736878.11639425845  984260.50177056517
-284444.22985934425 -721047.92282259674  995354.61219200492
-287134.41427715257 -706825.07261635445  1004739.5561923278
-290292.00062056136 -695045.03681817499  1012023.9039119020
-293017.92532742640 -687173.69529492653  1016603.2848906596
-178379.51097331621 -1133263.5107911141  524827.58701622428
-184012.73911128860 -1131311.3475279852  527089.53482129425
-191736.49853772126 -1127395.2183639745  532697.44476343645
-200311.10708197899 -1121754.2407718778  541380.00942854653
-209173.48018328592 -1114627.9478204895  552630.45884609921
-218035.76799751545 -1106238.6270652527  565902.76088871632
-226733.64331356451 -1096787.9904918701  580686.99815091118
-235156.81690628041 -1086456.9677643448  596541.66625455860
-243216.81034368003 -1075405.7656607553  613104.76532873628
-250833.67483306254 -1063773.3589027117  630093.75443463761
-257932.31846201644 -1051676.5287415260  647299.64383269742
-264443.37887360022 -1039208.8712522502  664578.10090273852
-270305.93128473125 -1026440.1905251547  681839.18170337775
-275470.65138265607 -1013416.5809384055  699036.61179145717
-279902.79039062094 -1000161.3857725223  716157.14843886462
-283584.71436814818 -986677.13237688271  733210.32258160471
-286517.95684268774 -972948.49285942235  750218.71582107560
-288724.81864452065 -958946.29705636087  767208.84339242068
-290249.56862867402 -944632.62060099863  784202.67209842626
-291159.27996479208 -929966.97354766878  801209.79320021207
-291544.29083685530 -914913.61337146431  818220.28663860436
-291518.20839774824 -899449.99248431460  835198.34537161724
-291217.27277895232 -883576.32360580261  852076.76374690363
-290798.74307938345 -867326.21803168464  868752.41205838299
-290437.71285103244 -850778.36455694796  885082.78724344203
-290321.31234805606 -834069.37610311923  900883.58979526861
-290638.40820615873 -817408.48704794305  915926.91405828681
-291561.22737802629 -801096.31702827755  929938.80038016592
-293211.70456887560 -785553.84849072038  942592.95474992087
-295596.32955741871 -771378.09748422587  953492.56504324777
-298465.59923621069 -759472.60280250583  962116.97967758076
-300957.83624068333 -751437.10831904970  967634.27180179209
-183846.94288540375 -1161808.9650795886  456014.97910851560
-189233.07794477191 -1159937.1292463087  458569.65591536235
-196848.81666472738 -1156315.5757405611  464472.02671035472
-205547.53779260960 -1151176.4878208765  473383.91873271408
-214752.02055602285 -1144733.3663577179  484785.02507130534
-224121.96136510425 -1137182.0596137953  498132.25216335704
-233433.27192997935 -1128701.7608474854  512923.65273479378
-242522.04541029950 -1119455.1729145376  528727.34395323298
-251256.78545635240 -1109587.8871143016  545191.87397678080
-259525.32375598932 -1099227.0792128216  562046.14185452065
-267229.64955552999 -1088479.8782057262  579093.51581469923
-274284.83980293229 -1077431.8372469819  596202.89638664678
-280619.92022924696 -1066145.8696153820  613298.35805384768
-286179.47090338496 -1054661.8983958813  630348.33340337151
-290925.37708009087 -1042997.3633705355  647354.89176484325
-294838.46411694353 -1031148.6560048229  664343.40533760283
-297919.93593652395 -1019093.5163589899  681352.73361570993
-300192.61947676045 -1006794.4178052094  698425.96057628328
-301702.03917202295 -994202.97678213136  715601.67092869873
-302517.32534008054 -981265.44477562641  732905.74133194645
-302731.90859909903 -967929.35911705042  750343.64007043850
-302463.86771452200 -954151.44249905599  767893.26369170356
-301855.67296910979 -939906.84902591608  785498.37604510249
-301072.87920037488 -925199.87361748121  803062.72867513052
-300301.03253206483 -910076.31722557079  820444.89004702284
-299739.58741809824 -894637.94130726589  837453.61938848835
-299590.83815097169 -879060.08942443237  853843.14706862939
-300040.42264342273 -863615.12967373000  869306.66826933785
-301222.95267727261 -848708.14475975896  883464.00533229834
-303158.64795755938 -834940.93050736503  895833.63837879698
-305622.01892476663 -823250.23641884420  905761.37072830612
-307815.41775674454 -815298.45091858029  912188.32235452207
-192332.16652779077 -1186662.9348272944  382607.95567362645
-197390.93111196678 -1184860.8483631609  385604.74744203506
-204743.15952288109 -1181509.9022734570  392000.02599146240
-213355.29337220901 -1176839.7990008029  401344.03844676865
-222660.00914787949 -1171041.3389875600  413078.84674410749
-232285.22947978845 -1164285.2698546583  426653.03641711245
-241961.39331397289 -1156728.4782931153  441569.18208838830
-251479.15154443082 -1148515.4116677707  457405.74594014284
-260667.67508334760 -1139777.2799148399  473824.38336954004
-269383.47078398749 -1130630.1390038140  490568.51240529364
-277505.00293517340 -1121172.5963800000  507456.80938522477
-284930.50860029476 -1111483.6841353092  524373.96587619768
-291577.48154981481 -1101621.2696232384  541260.17910585774
-297382.95563230844 -1091621.2209116684  558100.27653967694
-302304.12726102141 -1081497.4320709140  574912.99340328400
-306319.10408350040 -1071242.7461849491  591740.66628766002
-309427.70487263723 -1060830.7874428281  608639.43906851369
-311652.30018036562 -1050218.7190786672  625669.97435389529
-313038.69626430003 -1039350.9703414724  642888.61088865215
-313657.04043274804 -1028164.0134327887  660338.89283284161
-313602.66748470697 -1016592.3122409993  678043.41200097837
-312996.71343174553 -1004575.6044971402  695995.93615845579
-311986.18364804267 -992067.71954157925  714153.82934998977
-310742.96009203844 -979047.19193769188  732430.77463410259
-309460.93401422305 -965530.04930913076  750689.73958560638
-308350.00165708625 -951585.42935859994  768735.89614993089
-307624.94959484192 -937355.32560207078  786308.66386627068
-307486.01767177059 -923081.23448372353  803070.86511671823
-308085.35058095201 -909143.90719030565  818590.37600933854
-309466.70146882749 -896131.20807033044  832303.21970022912
-311442.92811703013 -884977.08202835242  843426.52183188207
-313295.20781316044 -877340.93623501388  850687.03133792465
-203287.32972565555 -1207073.8994763389  305280.68018620490
-207956.81602664897 -1205369.6796574914  308848.39152796112
-214922.62908409469 -1202313.8057325103  315910.12483227096
-223275.15715120392 -1198126.3224026610  325869.53015575663
-232472.32677099219 -1192973.9369342616  338111.27458309138
-242125.74731487848 -1187002.4341040291  352065.01507147081
-251933.11991993926 -1180346.9461564056  367233.19662798266
-261648.75010939749 -1173134.4344413197  383203.55062706314
-271068.24276310275 -1165482.7368303081  399651.63434522861
-280019.99962882814 -1157498.0672998382  416336.94878543325
-288360.44065228000 -1149272.0552213283  433095.17461306439
-295971.35234102112 -1140878.9993662818  449828.29870670877
-302758.45025649993 -1132373.7310078971  466493.82100997947
-308650.63369337167 -1123790.2833710201  483093.79652456322
-313599.65489531262 -1115141.4378404678  499664.14818314562
-317580.07556273520 -1106419.1506886608  516264.45695389790
-320589.46800294082 -1097595.8453569426  532968.27689809445
-322648.85439468222 -1088626.5718203324  549853.92133135069
-323803.37676825188 -1079452.0745997988  566995.61087773950
-324123.15806136554 -1070002.8647485017  584454.85604730900
-323704.25163227733 -1060204.4510301573  602271.95718378236
-322669.47841224843 -1049983.9478204541  620457.53113286861
-321168.80750821799 -1039278.3443089116  638983.99905884196
-319378.73190442409 -1028044.8047029547  657776.96527724294
-317499.80032506806 -1016273.5097119352  676706.33303544647
-315751.04585377325 -1004003.8276274196  695576.75498157099
-314359.41081830848 -991345.19693157508  714116.44167433656
-313541.16577140265 -978505.40999077004  731962.11029291572
-313469.99613514886 -965832.02160285425  748635.09034009778
-314220.12214794999 -953880.53390832082  763496.60954522761
-315651.75283764349 -943548.85752593074  775647.44266386097
-317133.40849693859 -936435.12928116613  783623.04763338470
-216094.66957115845 -1222455.5746672798  224621.66562194334
-220326.64163921704 -1220912.3856094505  228863.60254172800
-226807.67963414243 -1218222.1381251109  236733.03436532378
-234758.03296818683 -1214578.4248845330  247461.80852985723
-243670.87338876195 -1210117.8754015977  260362.56262073191
-253152.92712446413 -1204959.5325817575  274837.31778567197
-262879.81975074072 -1199216.8120153730  290383.65840118658
-272578.21921490482 -1193000.0715043412  306596.43624677329
-282016.60607288906 -1186415.0992529357  323164.47373238479
-290999.65602395020 -1179559.8569366387  339863.46525702399
-299364.47167638806 -1172520.7751587527  356546.45677385293
-306977.89630205056 -1165369.3525487538  373133.05165988614
-313734.52467665047 -1158159.4589392557  389598.18610255414
-319555.21292856499 -1150925.5135342097  405961.03151059762
-324385.99689662212 -1143681.5714970301  422274.34086671908
-328197.39135599963 -1136421.2865484518  438614.36673418729
-330984.07431174669 -1129118.7051648980  455071.33849287214
-332764.96592499898 -1121729.8740150311  471740.39270992100
-333583.69461686880 -1114195.2937813180  488712.79594489466
-333509.40258635767 -1106443.3191679409  506067.27890081471
-332637.77656773507 -1098394.6798455853  523861.30588729435
-331092.09098845918 -1089968.3764178352  542122.12333837780
-329023.90918131563 -1081089.2905120265  560837.44886214752
-326612.89025059878 -1071697.9492662055  579945.64950494620
-324064.87182422186 -1061763.0309116107  599325.16713207914
-321607.00446389423 -1051297.4566354742  618782.69470832602
-319478.11801066069 -1040379.4324558621  638039.02667010762
-317911.47519829421 -1029180.9267627563  656710.24420512281
-317104.89180430840 -1018008.6957969004  674279.03259305388
-317167.32279374870 -1007369.9814107118  690043.50647142646
-318011.73280516471 -998098.29147694143  703006.23700506426
-319099.59749718138 -991680.72783306567  711543.54177419934
-230100.38398040042 -1232344.3727858239  141175.74534650272
-233858.09486278883 -1231054.7108754923  146164.70578548685
-239776.01982080544 -1228840.6307870864  154943.84584307417
-247207.23801306327 -1225845.1858426502  166558.07617556211
-255686.96654299987 -1222165.1207763404  180238.79609214622
-264825.70524316636 -1217888.9592683644  195354.19026382128
-274285.80938013468 -1213107.4896336056  211392.86716086246
-283774.13779508875 -1207914.9684986786  227954.15880050056
-293038.36986971891 -1202406.3469569879  244738.47572583155
-301864.18044572504 -1196672.9148695217  261536.57927805555
-310072.63825619296 -1190797.6876774360  278218.00255531480
-317517.74520133418 -1184851.2750913363  294719.13462761231
-324084.17072643299 -1178888.5962005637  311031.44367053633
-329685.26199080871 -1172946.5664968314  327190.17572093930
-334261.40931767755 -1167042.7444957674  343263.70865516964
-337778.83668241039 -1161174.8651270245  359343.59741849871
-340228.87212973996 -1155321.1826691460  375535.23185480869
-341627.73052158917 -1149441.5810408110  391948.94620603631
-342016.80839042494 -1143479.4699472704  408691.36950330948
-341463.44306746696 -1137364.5619965151  425856.78470812156
-340062.02024261875 -1131016.7112771585  443518.26582370128
-337935.21758074680 -1124351.0842858648  461718.37618055282
-335235.03626157454 -1117285.0293349714  480459.22262519441
-332143.08386506647 -1109747.1175932593  499691.64266876626
-328869.30859238288 -1101688.9695978838  519303.20916712523
-325648.01035724476 -1093100.7071776318  539104.48730935517
-322729.38535501709 -1084031.3040870975  558812.40725895937
-320363.87822224695 -1074616.0396117410  578028.35904350912
-318774.54743487143 -1065115.4730926002  596205.70930289896
-318107.19458977965 -1055976.3899852314  612593.75401887030
-318330.65324566903 -1047945.4750527963  626119.24378628412
-319003.97492871422 -1042358.6222993709  635038.89441261126
-244644.66112300582 -1236373.7782537155  55482.440011197214
-247901.96995868816 -1235452.0346151937  61256.137445429340
-253196.09138710782 -1233855.7251747490  71001.547016517929
-260013.87182923680 -1231648.4718400261  83571.880375227804
-267937.46139103523 -1228874.5527577759  98113.614175898518
-276587.98576902662 -1225586.4572049612  113957.68057914222
-285621.88781889592 -1221850.3459811371  130580.62698386355
-294733.08535984904 -1217744.1974608866  147583.56569604538
-303654.28127300122 -1213352.9064169002  164676.14542851059
-312156.72675525129 -1208762.3785776400  181662.10665883764
-320048.81312495359 -1204053.7743170902  198425.54444685706
-327173.98898621200 -1199298.5275686560  214917.78339973840
-333408.41939638829 -1194554.4168941821  231144.98020324126
-338658.69915878342 -1189862.7428626826  247156.56889981424
-342859.84446232073 -1185246.5413675210  263034.58736553282
-345973.71927949233 -1180709.7134779536  278883.82704215369
-347987.99973503518 -1176236.9582675563  294822.66019566660
-348915.73399498704 -1171794.4388082949  310974.33120379318
-348795.50896326132 -1167331.1801039663  327458.45507956343
-347692.18213623908 -1162781.2812585593  344382.44635143178
-345698.06836725434 -1158067.1161426106  361832.60073580977
-342934.37880129158 -1153103.7928256688  379864.56234582141
-339552.58119348739 -1147805.2406886672  398492.91709066130
-335735.17292678123 -1142092.3991875795  417679.63356708759
-331695.10844737093 -1135904.1081410937  437320.98401428957
-327672.76406956639 -1129211.4854204415  457232.33897059853
-323928.77262104524 -1122036.9204209023  477129.67880813492
-320730.11172791827 -1114479.5496329877  496605.43674007832
-318324.87373178813 -1106750.8735369376  515093.39891695365
-316896.17042288318 -1099229.1661389258  531809.63548979268
-316470.39086743549 -1092558.3210785701  545630.12899320549
-316708.76939715422 -1087893.3617649490  554736.89234956342
-259089.99096727301 -1234262.7674293227 -31894.018831773832
-261830.95218821740 -1233836.3112069671 -25336.545588332010
-266456.91743210581 -1233019.2350968381 -14618.753460600919
-272587.79300855362 -1231764.6585028672 -1073.3522226186658
-279856.33853043773 -1230050.2280295617  14363.050780185600
-287899.99058157502 -1227885.5976144089  30983.632988857938
-296375.56252321642 -1225309.2626222603  48251.091076717748
-304970.01870192925 -1222381.9233144475  65765.889076102729
-313406.27208152285 -1219178.5510059290  83244.220856459666
-321445.32056686678 -1215780.4397011949  100500.04599295834
-328886.01488902362 -1212268.0326988462  117429.28521386551
-335563.45321240777 -1208714.9380314287  133995.51621900272
-341346.71998029563 -1205183.2702675366  150216.95225537271
-346136.47047519044 -1201720.2750617622  166154.61242894604
-349862.70507560868 -1198356.0948840887  181901.58979593340
-352482.96298593906 -1195102.5036353050  197573.27129000015
-353981.08226960903 -1191952.4565182626  213298.30218327831
-354366.60816777858 -1188880.3547003714  229210.03499440459
-353674.87518519285 -1185842.9995170706  245438.16752503862
-351967.73105314653 -1182781.2995114310  262100.25704356655
-349334.80305629713 -1179622.8887089242  279292.79748426157
-345895.11930715886 -1176285.9120296726  297081.55533281033
-341798.77805573452 -1172684.3304595784  315490.86727373005
-337228.19145944994 -1168735.1952996664  334491.58595066727
-332398.19446796965 -1164368.4455953520  353987.27962350694
-327553.96629493020 -1159539.9229049771  373798.07018353208
-322965.18287603988 -1154248.5450226029  393640.97586760955
-318913.91379965976 -1148559.1236308422  413104.44929616613
-315671.96849014872 -1142633.6772331346  431612.00039062020
-313458.98873325152 -1136778.0049592925  448362.19816355139
-312359.69114817685 -1131523.7818339032  462206.43159639259
-312142.46115976624 -1127826.6254863441  471299.92330167332
-272847.91660075216 -1225814.0809770788 -120346.51720719560
-275066.28001547983 -1226013.1998033260 -113046.92134423074
-278995.02125539532 -1226143.7098182095 -101404.20063731882
-284384.94482040749 -1226017.7022155747 -86920.814149944563
-290922.23781640944 -1225531.7310503165 -70609.196650725280
-298265.53304981615 -1224645.1092712875 -53211.456016347169
-306077.48601032788 -1223364.7831744421 -35279.041442487782
-314043.33014035836 -1221732.3337973380 -17214.013692841047
-321880.72018810624 -1219812.1731594827  703.63490511534337
-329344.06016535446 -1217681.0814539834  18294.939787005009
-336225.43301477749 -1215419.3386517861  35464.353148390219
-342353.55623937951 -1213103.5658488299  52184.403551802774
-347591.73090572230 -1210801.2302615428  68482.116804695659
-351835.44088726392 -1208566.6499490340  84426.927491101305
-355010.04427378776 -1206438.2746214285  100119.87271340002
-357068.84886401222 -1204437.0118973874  115683.84702099006
-357991.75658030482 -1202565.4025335414  131254.65998905452
-357784.58213741664 -1200807.5110614803  146972.59976621755
-356479.08654753474 -1199129.4797083323  162974.17791666550
-354133.70566521800 -1197480.7852748737  179383.71812471052
-350834.88757287327 -1195796.3349151763  196304.45227787047
-346698.87019005883 -1193999.6324031469  213808.79810952727
-341873.61938820069 -1192007.3375277566  231927.50282222705
-336540.49351540685 -1189735.6250298119  250637.32698519385
-330914.97958166432 -1187108.8284705959  269846.87616236944
-325245.52316124033 -1184070.9441869229  289379.99190478498
-319808.97606676997 -1180600.7208308722  308955.64037528506
-314900.34857377468 -1176731.4089319275  328162.14379502821
-310812.94045812381 -1172577.1885058859  346420.96350879304
-307801.18920227588 -1168371.1317719200  362928.03320578765
-306008.26050473296 -1164529.5420863763  376535.94918668200
-305315.00611901382 -1161801.3783881608  385421.50320508727
-285402.95766792458 -1210917.6433184955 -209220.08453620228
-287101.25180736586 -1211864.8716453568 -201260.61463083114