# OOMMF OVF 2.0
#
# Segment count: 1
#
# Begin: Segment
# Begin: Header
#
# Title: Oxs_MinDriver::Magnetization
# Desc: Oxs vector field output
# Desc:  MIF source file: /Users/marijanbeg/git/ubermag/oommfc/oommfc/tests/test_sample/test_oommf.mif
# Desc:  Iteration: 38, State id: 95
# Desc:  Stage: 0, Stage iteration: 38
# Desc:  Stage simulation time: -1 s
# Desc:  Total simulation time: -2 s
# meshunit: m
# meshtype: rectangular
# xbase: 5.0000000000000003e-10
# ybase: 5.0000000000000003e-10
# zbase: 5.0000000000000003e-10
# xnodes: 5
# ynodes: 5
# znodes: 5
# xstepsize: 1.0000000000000001e-09
# ystepsize: 1.0000000000000001e-09
# zstepsize: 1.0000000000000001e-09
# xmin: 0
# ymin: 0
# zmin: 0
# xmax: 5.0000000000000001e-09
# ymax: 5.0000000000000001e-09
# zmax: 5.0000000000000001e-09
# valuedim: 3
# valuelabels: Magnetization_x Magnetization_y Magnetization_z
# valueunits: A/m A/m A/m
#
# End: Header
#
# Begin: Data Text
 7826205.19122475 1172713.15805530 1172713.15920422
 7984436.64145022 352683.652239242 352683.654441629
 8000000.00000000 0.000773868362668773 0.00302694110185924
 7984436.64160549 -352683.651610955 -352683.651554690
 7826205.19163406 -1172713.15695031 -1172713.15757763
 7863223.99815438 559691.465579119 1362517.45611089
 7989760.87929240 200421.746614135 351499.950516200
 8000000.00000000 -0.000817225036638452 0.00213177903498424
 7989760.87942123 -200421.744568442 -351499.948754157
 7863223.99817887 -559691.465038574 -1362517.45619160
 7873658.88291919 -0.000302900351177457 1416155.28648086
 7991974.19355494 0.00216602105080694 358257.574311969
 8000000.00000000 -0.00229775822004626 -9.24223827674481e-12
 7991974.19355494 0.00216602101171873 -358257.574311969
 7873658.88291919 -0.000302900371978254 -1416155.28648086
 7863223.99817887 -559691.465038574 1362517.45619160
 7989760.87942123 -200421.744568442 351499.948754157
 8000000.00000000 -0.000817225107505093 -0.00213177906601998
 7989760.87929240 200421.746614136 -351499.950516200
 7863223.99815438 559691.465579118 -1362517.45611089
 7826205.19163406 -1172713.15695031 1172713.15757763
 7984436.64160549 -352683.651610955 352683.651554690
 8000000.00000000 0.000773868333540220 -0.00302694114540737
 7984436.64145022 352683.652239242 -352683.654441629
 7826205.19122475 1172713.15805530 -1172713.15920422
 7863223.99811179 1362517.45582819 559691.466865663
 7989760.87951133 351499.947345751 200421.743446688
 8000000.00000000 -0.00194938487161489 -0.000923746389511513
 7989760.87924489 -351499.950630689 -200421.748307106
 7863223.99801290 -1362517.45595362 -559691.467949666
 7942340.96584568 677945.418770475 677945.419202483
 7994651.71765750 206813.823079720 206813.819507085
 8000000.00000000 3.03859018566378e-05 -0.00171257927725991
 7994651.71753345 -206813.822759900 -206813.824622229
 7942340.96580750 -677945.420034385 -677945.418385882
 7968379.17920099 -0.00128634649055432 710586.558046402
 7997260.51467584 -0.000242073694497401 209342.447694663
 8000000.00000000 -0.00549625814895759 -3.57918080258969e-11
 7997260.51467584 -0.000242073715821074 -209342.447694663
 7968379.17920099 -0.00128634657111929 -710586.558046402
 7942340.96580750 -677945.420034385 677945.418385882
 7994651.71753345 -206813.822759900 206813.824622229
 8000000.00000000 3.03858155253987e-05 0.00171257931387143
 7994651.71765750 206813.823079720 -206813.819507085
 7942340.96584568 677945.418770475 -677945.419202483
 7863223.99801290 -1362517.45595362 559691.467949666
 7989760.87924489 -351499.950630689 200421.748307106
 8000000.00000000 -0.00194938487565381 0.000923746322531276
 7989760.87951133 351499.947345751 -200421.743446688
 7863223.99811179 1362517.45582819 -559691.466865663
 7873658.88302215 1416155.28590844 0.00000000000000
 7991974.19377675 358257.569363827 0.00000000000000
 8000000.00000000 -0.00272816104683075 0.00000000000000
 7991974.19344311 -358257.576806557 0.00000000000000
 7873658.88329135 -1416155.28441170 0.00000000000000
 7968379.17925308 710586.557462192 0.00000000000000
 7997260.51473304 209342.445509192 0.00000000000000
 8000000.00000000 -0.00311225133426274 0.00000000000000
 7997260.51455922 -209342.452149546 0.00000000000000
 7968379.17930337 -710586.556898342 0.00000000000000
 8000000.00000000 -0.000130709413403198 0.00000000000000
 8000000.00000000 -0.00164466744892250 0.00000000000000
 8000000.00000000 -0.00413370673447849 0.00000000000000
 8000000.00000000 -0.00164466739987933 0.00000000000000
 8000000.00000000 -0.000130709350392115 0.00000000000000
 7968379.17930337 -710586.556898342 0.00000000000000
 7997260.51455922 -209342.452149546 0.00000000000000
 8000000.00000000 -0.00311225127546719 0.00000000000000
 7997260.51473304 209342.445509192 0.00000000000000
 7968379.17925308 710586.557462192 0.00000000000000
 7873658.88329135 -1416155.28441170 0.00000000000000
 7991974.19344311 -358257.576806557 0.00000000000000
 8000000.00000000 -0.00272816096368575 0.00000000000000
 7991974.19377675 358257.569363827 0.00000000000000
 7873658.88302215 1416155.28590844 0.00000000000000
 7863223.99811179 1362517.45582819 -559691.466865663
 7989760.87951133 351499.947345751 -200421.743446688
 8000000.00000000 -0.00194938487161489 0.000923746389511513
 7989760.87924489 -351499.950630689 200421.748307106
 7863223.99801290 -1362517.45595362 559691.467949666
 7942340.96584568 677945.418770475 -677945.419202483
 7994651.71765750 206813.823079720 -206813.819507085
 8000000.00000000 3.03859018566378e-05 0.00171257927725991
 7994651.71753345 -206813.822759900 206813.824622229
 7942340.96580750 -677945.420034385 677945.418385882
 7968379.17920099 -0.00128634649055432 -710586.558046402
 7997260.51467584 -0.000242073694497401 -209342.447694663
 8000000.00000000 -0.00549625814895759 3.57918080258969e-11
 7997260.51467584 -0.000242073715821074 209342.447694663
 7968379.17920099 -0.00128634657111929 710586.558046402
 7942340.96580750 -677945.420034385 -677945.418385882
 7994651.71753345 -206813.822759900 -206813.824622229
 8000000.00000000 3.03858155253987e-05 -0.00171257931387143
 7994651.71765750 206813.823079720 206813.819507085
 7942340.96584568 677945.418770475 677945.419202483
 7863223.99801290 -1362517.45595362 -559691.467949666
 7989760.87924489 -351499.950630689 -200421.748307106
 8000000.00000000 -0.00194938487565381 -0.000923746322531276
 7989760.87951133 351499.947345751 200421.743446688
 7863223.99811179 1362517.45582819 559691.466865663
 7826205.19122475 1172713.15805530 -1172713.15920422
 7984436.64145022 352683.652239242 -352683.654441629
 8000000.00000000 0.000773868362668773 -0.00302694110185924
 7984436.64160549 -352683.651610955 352683.651554690
 7826205.19163406 -1172713.15695031 1172713.15757763
 7863223.99815438 559691.465579119 -1362517.45611089
 7989760.87929240 200421.746614135 -351499.950516200
 8000000.00000000 -0.000817225036638452 -0.00213177903498424
 7989760.87942123 -200421.744568442 351499.948754157
 7863223.99817887 -559691.465038574 1362517.45619160
 7873658.88291919 -0.000302900351177457 -1416155.28648086
 7991974.19355494 0.00216602105080694 -358257.574311969
 8000000.00000000 -0.00229775822004626 9.24223827674481e-12
 7991974.19355494 0.00216602101171873 358257.574311969
 7873658.88291919 -0.000302900371978254 1416155.28648086
 7863223.99817887 -559691.465038574 -1362517.45619160
 7989760.87942123 -200421.744568442 -351499.948754157
 8000000.00000000 -0.000817225107505093 0.00213177906601998
 7989760.87929240 200421.746614136 351499.950516200
 7863223.99815438 559691.465579118 1362517.45611089
 7826205.19163406 -1172713.15695031 -1172713.15757763
 7984436.64160549 -352683.651610955 -352683.651554690
 8000000.00000000 0.000773868333540220 0.00302694114540737
 7984436.64145022 352683.652239242 352683.654441629
 7826205.19122475 1172713.15805530 1172713.15920422
# End: Data Text
# End: Segment
