# OOMMF OVF 2.0
#
# Segment count: 1
#
# Begin: Segment
# Begin: Header
#
# Title: Oxs_MinDriver::Magnetization
# Desc: Oxs vector field output
# Desc:  MIF source file: /home/marijanbeg/git/ubermag/oommfc/docs/ipynb/skyrmion/drive-0/skyrmion.mif
# Desc:  Iteration: 469, State id: 1001
# Desc:  Stage: 0, Stage iteration: 469
# Desc:  Stage simulation time: -1 s
# Desc:  Total simulation time: -2 s
# meshunit: m
# meshtype: rectangular
# xbase: -4.7499999999999995e-08
# ybase: -4.7499999999999995e-08
# zbase: 2.5000000000000001e-09
# xnodes: 20
# ynodes: 20
# znodes: 1
# xstepsize: 5.0000000000000001e-09
# ystepsize: 5.0000000000000001e-09
# zstepsize: 5.0000000000000001e-09
# xmin: -4.9999999999999998e-08
# ymin: -4.9999999999999998e-08
# zmin: 0
# xmax: 4.9999999999999998e-08
# ymax: 4.9999999999999998e-08
# zmax: 5.0000000000000001e-09
# valuedim: 3
# valuelabels: Magnetization_x Magnetization_y Magnetization_z
# valueunits: A/m A/m A/m
#
# End: Header
#
# Begin: Data Text
 -298.253549234324 -298.253548945368 -1099999.91913165
 -967.934036771182 -469.344794648148 -1099999.47400859
 -1847.04126148882 -880.967036040406 -1099998.09651456
 -3028.10246512244 -1676.90546906167 -1099994.55388811
 -4491.94257481031 -3068.28063526033 -1099986.54905678
 -6010.09332986237 -5278.49225908095 -1099970.91611444
 -7078.81965815790 -8396.67614920181 -1099945.17415274
 -7009.61729736973 -12146.0933118529 -1099910.60440501
 -5273.46292896166 -15717.3643371384 -1099875.06338085
 -1973.77795228218 -17948.3053001129 -1099851.79116891
 1973.77796095311 -17948.3052966716 -1099851.79116895
 5273.46293367681 -15717.3643286739 -1099875.06338095
 7009.61729695455 -12146.0933022706 -1099910.60440512
 7078.81965426826 -8396.67614149370 -1099945.17415282
 6010.09332498079 -5278.49225413181 -1099970.91611449
 4491.94257061277 -3068.28063256710 -1099986.54905681
 3028.10246217058 -1676.90546777503 -1099994.55388812
 1847.04125965235 -880.967035491111 -1099998.09651457
 967.934035675902 -469.344794441765 -1099999.47400859
 298.253548492003 -298.253548894401 -1099999.91913165
 -469.344794950739 -967.934036370539 -1099999.47400859
 -1551.55920442907 -1551.55920404263 -1099997.81151058
 -3059.96919740015 -2978.60575138884 -1099991.71110345
 -5233.87909841784 -5803.44740088176 -1099972.23897144
 -8142.29946242209 -10882.5408098507 -1099916.03009729
 -11444.0695092324 -19204.1860052907 -1099772.80949883
 -14133.5060080634 -31320.5249618503 -1099463.17297308
 -14589.3714074159 -46323.3699429796 -1098927.33865304
 -11323.3881046227 -60958.6421410225 -1098251.25760463
 -4309.64240391435 -70241.9339500113 -1097746.55440011
 4309.64242313964 -70241.9339355459 -1097746.55440096
 11323.3881139964 -60958.6421060326 -1098251.25760648
 14589.3714048917 -46323.3699046671 -1098927.33865469
 14133.5059986791 -31320.5249324470 -1099463.17297404
 11444.0694990061 -19204.1859874295 -1099772.80949924
 8142.29945455492 -10882.5408006870 -1099916.03009744
 5233.87909342831 -5803.44739676045 -1099972.23897149
 3059.96919459504 -2978.60574973691 -1099991.71110346
 1551.55920292273 -1551.55920346080 -1099997.81151059
 469.344794020412 -967.934036233726 -1099999.47400859
 -880.967036320890 -1847.04126078422 -1099998.09651456
 -2978.60575165606 -3059.96919654349 -1099991.71110345
 -6111.32658316854 -6111.32658217526 -1099966.04646453
 -10988.1257458806 -12402.6479955864 -1099875.19083544
 -18063.2059990947 -24275.6778941117 -1099583.74490159
 -26859.7040265600 -44775.9221710833 -1098760.06165738
 -35000.6116419289 -76221.0093302489 -1096797.75479410
 -37855.5076557914 -117008.126902960 -1093103.86458871
 -30417.6996912447 -158234.660180442 -1088134.43832234
 -11791.8779039546 -184937.814431121 -1084278.08075647
 11791.8779573220 -184937.814388815 -1084278.08076311
 30417.6997139341 -158234.660080570 -1088134.43833623
 37855.5076441786 -117008.126799188 -1093103.86460022
 35000.6116141944 -76221.0092567536 -1096797.75480009
 26859.7040003657 -44775.9221307201 -1098760.06165967
 18063.2059813274 -24275.6778756133 -1099583.74490230
 10988.1257359202 -12402.6479882362 -1099875.19083562
 6111.32657823941 -6111.32657962239 -1099966.04646457
 2978.60574936488 -3059.96919578781 -1099991.71110346
 880.967035100553 -1847.04126063347 -1099998.09651456
 -1676.90546907865 -3028.10246387670 -1099994.55388812
 -5803.44740048423 -5233.87909645281 -1099972.23897145
 -12402.6479959476 -10988.1257426787 -1099875.19083547
 -23478.8663026102 -23478.8662985130 -1099498.74291628
 -40873.0193878610 -48521.5750395435 -1098168.95468858
 -64466.4050974459 -94613.8650893801 -1094025.73056883
 -88841.5358039295 -169613.937290804 -1083207.41032949
 -100813.080377549 -271303.984896954 -1061240.25112310
 -83838.0532115616 -376527.917453081 -1030144.60548611
 -33068.1159487352 -445013.778648816 -1005419.93043718
 33068.1161000283 -445013.778539115 -1005419.93048076
 83838.0532662316 -376527.917197509 -1030144.60557508
 100813.080331932 -271303.984643350 -1061240.25119227
 88841.5357220534 -169613.937127406 -1083207.41036179
 64466.4050304998 -94613.8650114176 -1094025.73057952
 40873.0193483315 -48521.5750096142 -1098168.95469137
 23478.8662833384 -23478.8662890433 -1099498.74291689
 12402.6479877333 -10988.1257403789 -1099875.19083558
 5803.44739731388 -5233.87909616459 -1099972.23897147
 1676.90546775123 -3028.10246390529 -1099994.55388812
 -3068.28063436645 -4491.94257280526 -1099986.54905679
 -10882.5408073287 -8142.29945844203 -1099916.03009735
 -24275.6778911087 -18063.2059910654 -1099583.74490179
 -48521.5750406923 -40873.0193733965 -1098168.95468906
 -89736.8470140523 -89736.8469945208 -1092654.83872056
 -150357.263803488 -185644.985187425 -1073745.14327018
 -218189.534170540 -348154.105471141 -1020383.28388015
 -256087.528063183 -566020.056908598 -907766.750408758
 -215285.114734485 -775474.600435824 -749860.962747534
 -84680.3389907090 -898437.698106081 -628998.364711917
 84680.3393812792 -898437.697920022 -628998.364925094
 215285.114864078 -775474.599967696 -749860.963194446
 256087.527919286 -566020.056417128 -907766.750755798
 218189.533948249 -348154.105170002 -1020383.28403043
 150357.263644814 -185644.985067673 -1073745.14331310
 89736.8469341941 -89736.8469613907 -1092654.83872984
 48521.5750080143 -40873.0193684727 -1098168.95469069
 24275.6778797946 -18063.2059925080 -1099583.74490202
 10882.5408041988 -8142.29946009715 -1099916.03009736
 3068.28063381162 -4491.94257340481 -1099986.54905679
 -5278.49225601206 -6010.09332709469 -1099970.91611447
 -19204.1859976968 -11444.0695024401 -1099772.80949903
 -44775.9221579684 -26859.7040104856 -1098760.06165831
 -94613.8650739541 -64466.4050619186 -1094025.73057226
 -185644.985191856 -150357.263735180 -1073745.14327897
 -326012.302679546 -326012.302587758 -998715.153115746
 -475589.986769657 -606800.998051795 -784606.087949732
 -522384.955955725 -889601.800807493 -381736.288281846
 -386357.951947312 -1028341.54389513 56931.5559813353
 -136543.900843817 -1047374.51008695 307184.633018129
 136543.901479668 -1047374.51011859 307184.632627611
 386357.952283952 -1028341.54382610 56931.5549437651
 522384.955755059 -889601.800472779 -381736.289336467
 475589.986321374 -606800.997749240 -784606.088455451
 326012.302370508 -326012.302498319 -998715.153245821
 185644.985061502 -150357.263739929 -1073745.14330085
 94613.8650328970 -64466.4050799698 -1094025.73057474
 44775.9221489819 -26859.7040227484 -1098760.06165838
 19204.1859980037 -11444.0695084640 -1099772.80949896
 5278.49225840490 -6010.09332883472 -1099970.91611445
 -8396.67614215432 -7078.81965514600 -1099945.17415281
 -31320.5249448664 -14133.5059988491 -1099463.17297368
 -76221.0092951496 -35000.6116170965 -1096797.75479733
 -169613.937228242 -88841.5357402562 -1083207.41034450
 -348154.105396639 -218189.534022962 -1020383.28393712
 -606800.998082929 -475589.986517521 -784606.088078487
 -761878.654829375 -761878.654593403 -221544.196471783
 -612133.276656884 -814632.608774230 414326.639658855
 -338352.150545565 -713980.203298375 765343.120122735
 -103679.453418180 -636624.004534682 891044.582380215
 103679.453843898 -636624.004691064 891044.582218950
 338352.150915256 -713980.203702385 765343.119582400
 612133.276745280 -814632.609181794 414326.638726922
 761878.654434672 -761878.654763249 -221544.197245055
 606800.997705887 -475589.986672461 -784606.088276168
 348154.105273741 -218189.534153744 -1020383.28395109
 169613.937214520 -88841.5358107157 -1083207.41034087
 76221.0093056273 -35000.6116487723 -1096797.75479559
 31320.5249560963 -14133.5060115094 -1099463.17297320
 8396.67615130677 -7078.81965846218 -1099945.17415272
 -12146.0932993319 -7009.61729529690 -1099910.60440517
 -46323.3699132714 -14589.3713986493 -1098927.33865441
 -117008.126834470 -37855.5076293407 -1093103.86459696
 -271303.984751671 -100813.080301948 -1061240.25116742
 -566020.056680680 -256087.527872176 -907766.750604756
 -889601.800765201 -522384.955668781 -381736.288773071
 -814632.609048383 -612133.276484070 414326.639375146
 -485814.057532866 -485814.057348792 859051.455493650
 -231385.309220844 -366958.077552561 1010842.52383628
 -67012.5822917028 -308745.003912894 1053653.56563409
 67012.5824788230 -308745.004016396 1053653.56559186
 231385.309374883 -366958.077857298 1010842.52369040
 485814.057556858 -485814.057813173 859051.455217464
 814632.608800050 -612133.276985917 414326.639121970
 889601.800531665 -522384.956154617 -381736.288652465
 566020.056734491 -256087.528185255 -907766.750482881
 271303.984845649 -100813.080437204 -1061240.25113055
 117008.126894557 -37855.5076810105 -1093103.86458874
 46323.3699460344 -14589.3714170989 -1098927.33865279
 12146.0933197053 -7009.61729984087 -1099910.60440491
 -15717.3643195592 -5273.46292917758 -1099875.06338110
 -60958.6421009293 -11323.3881011344 -1098251.25760689
 -158234.660082902 -30417.6996785681 -1088134.43833688
 -376527.917231923 -83838.0531714737 -1030144.60557021
 -775474.600095681 -215285.114635076 -749860.963127836
 -1028341.54395681 -386357.951893995 56931.5552289943
 -713980.203628864 -338352.150559519 765343.119808257
 -366958.077743405 -231385.309181628 1010842.52377598
 -163907.418609233 -163907.418544176 1075299.36123437
 -46260.3835129746 -134224.899358720 1090799.54772147
 46260.3835609352 -134224.899408369 1090799.54771333
 163907.418603384 -163907.418693974 1075299.36121243
 366958.077591557 -231385.309429490 1010842.52377437
 713980.203242194 -338352.150895830 765343.120020295
 1028341.54374020 -386357.952358202 56931.5559913648
 775474.600441330 -215285.115002506 -749860.962664891
 376527.917505463 -83838.0533220547 -1030144.60545798
 158234.660216391 -30417.6997315868 -1088134.43831598
 60958.6421618611 -11323.3881188538 -1098251.25760333
 15717.3643531525 -5273.46293337621 -1099875.06338060
 -17948.3052807353 -1973.77795518059 -1099851.79116922
 -70241.9339097064 -4309.64240882828 -1097746.55440267
 -184937.814333413 -11791.8779166256 -1084278.08077300
 -445013.778427876 -33068.1159836625 -1005419.93053382
 -898437.697803247 -84680.3390851186 -628998.365131764
 -1047374.51024629 -136543.901040855 307184.632387264
 -636624.004814810 -103679.453553352 891044.582164344
 -308745.004058777 -67012.5823398419 1053653.56558828
 -134224.899412000 -46260.3835150370 1090799.54771483
 -37416.4840795784 -37416.4840685789 1098726.54170138
 37416.4840675004 -37416.4840828172 1098726.54170130
 134224.899334178 -46260.3835580642 1090799.54772258
 308745.003813258 -67012.5824117935 1053653.56565564
 636624.004300993 -103679.453655682 891044.582519544
 1047374.50989671 -136543.901205311 307184.633506073
 898437.698341711 -84680.3392498256 -628998.364340467
 445013.778846769 -33068.1160513970 -1005419.93034619
 184937.814524871 -11791.8779396794 -1084278.08074009
 70241.9339916696 -4309.64241629754 -1097746.55439740
 17948.3053236544 -1973.77795691748 -1099851.79116851
 -17948.3052801708 1973.77795660279 -1099851.79116922
 -70241.9339073337 4309.64241198166 -1097746.55440281
 -184937.814326474 11791.8779253793 -1084278.08077409
 -445013.778409882 33068.1160084790 -1005419.93054097
 -898437.697772728 84680.3391491838 -628998.365166731
 -1047374.51025148 136543.901145154 307184.632323208
 -636624.004840461 103679.453623183 891044.582137892
 -308745.004075754 67012.5823705360 1053653.56558135
 -134224.899420144 46260.3835229042 1090799.54771350
 -37416.4840819139 37416.4840665976 1098726.54170137
 37416.4840698359 37416.4840808356 1098726.54170129
 134224.899342322 46260.3835659308 1090799.54772125
 308745.003830235 67012.5824424863 1053653.56564872
 636624.004326643 103679.453725511 891044.582493093
 1047374.50990190 136543.901309606 307184.633442019
 898437.698311193 84680.3393138886 -628998.364375433
 445013.778828776 33068.1160762127 -1005419.93035333
 184937.814517932 11791.8779484330 -1084278.08074118
 70241.9339892970 4309.64241945100 -1097746.55439754
 17948.3053230900 1973.77795833964 -1099851.79116852
 -15717.3643181707 5273.46292995106 -1099875.06338112
 -60958.6420951899 11323.3881026720 -1098251.25760720
 -158234.660066520 30417.6996822899 -1088134.43833916
 -376527.917190002 83838.0531804415 -1030144.60558480
 -775474.600018894 215285.114656334 -749860.963201143
 -1028341.54394549 386357.951949215 56931.5550588018
 -713980.203695133 338352.150620162 765343.119719624
 -366958.077793391 231385.309206896 1010842.52375205
 -163907.418633806 163907.418543217 1075299.36123077
 -46260.3835200329 134224.899345954 1090799.54772275
 46260.3835679928 134224.899395603 1090799.54771460
 163907.418627955 163907.418693014 1075299.36120883
 366958.077641542 231385.309454757 1010842.52375044
 713980.203308462 338352.150956471 765343.119931666
 1028341.54372888 386357.952413420 56931.5558211775
 775474.600364545 215285.115023763 -749860.962738196
 376527.917463543 83838.0533310223 -1030144.60547257
 158234.660200010 30417.6997353085 -1088134.43831826
 60958.6421561219 11323.3881203913 -1098251.25760363
 15717.3643517641 5273.46293414971 -1099875.06338062
 -12146.0932977601 7009.61729522887 -1099910.60440518
 -46323.3699069870 14589.3713982353 -1098927.33865468
 -117008.126817448 37855.5076274359 -1093103.86459885
 -271303.984710072 100813.080294466 -1061240.25117877
 -566020.056600063 256087.527848574 -907766.750661682
 -889601.800710296 522384.955635867 -381736.288946063
 -814632.609115236 612133.276498572 414326.639222276
 -485814.057609041 485814.057352729 859051.455448344
 -231385.309261503 366958.077527653 1010842.52383602
 -67012.5823035061 308745.003872620 1053653.56564514
 67012.5824906253 308745.003976121 1053653.56560291
 231385.309415540 366958.077832390 1010842.52369013
 485814.057633030 485814.057817108 859051.455172160
 814632.608866902 612133.277000418 414326.638969105
 889601.800476762 522384.956121704 -381736.288825452
 566020.056653877 256087.528161653 -907766.750539805
 271303.984804051 100813.080429722 -1061240.25114190
 117008.126877536 37855.5076791059 -1093103.86459063
 46323.3699397502 14589.3714166849 -1098927.33865306
 12146.0933181337 7009.61729977291 -1099910.60440493
 -8396.67614088989 7078.81965450807 -1099945.17415282
 -31320.5249400432 14133.5059973098 -1099463.17297384
 -76221.0092830940 35000.6116125474 -1096797.75479831
 -169613.937201439 88841.5357268261 -1083207.41034980
 -348154.105347241 218189.533986499 -1020383.28396178
 -606800.998033297 475589.986443988 -784606.088161443
 -761878.654857233 761878.654528659 -221544.196598631
 -612133.276739206 814632.608733496 414326.639617321
 -338352.150600734 713980.203234948 765343.120157515
 -103679.453434967 636624.004450397 891044.582438481
 103679.453860683 636624.004606778 891044.582277217
 338352.150970424 713980.203638957 765343.119617183
 612133.276827600 814632.609141059 414326.638685392
 761878.654462531 761878.654698506 -221544.197371897
 606800.997656257 475589.986598930 -784606.088359121
 348154.105224346 218189.534117282 -1020383.28397574
 169613.937187718 88841.5357972859 -1083207.41034617
 76221.0092935721 35000.6116442231 -1096797.75479657
 31320.5249512734 14133.5060099703 -1099463.17297336
 8396.67615004250 7078.81965782422 -1099945.17415273
 -5278.49225520013 6010.09332629400 -1099970.91611448
 -19204.1859947670 11444.0695007627 -1099772.80949910
 -44775.9221513474 26859.7040061890 -1098760.06165868
 -94613.8650611654 64466.4050509372 -1094025.73057401
 -185644.985172212 150357.263709152 -1073745.14328602
 -326012.302664874 326012.302537064 -998715.153137084
 -475589.986795071 606800.997989945 -784606.087982161
 -522384.956035420 889601.800769182 -381736.288262067
 -386357.952023462 1028341.54385960 56931.5561063904
 -136543.900870796 1047374.51002960 307184.633201657
 136543.901506644 1047374.51006124 307184.632811140
 386357.952360100 1028341.54379056 56931.5550688231
 522384.955834754 889601.800434471 -381736.289316684
 475589.986346789 606800.997687392 -784606.088487878
 326012.302355837 326012.302447627 -998715.153267158
 185644.985041859 150357.263713902 -1073745.14330789
 94613.8650201088 64466.4050689887 -1094025.73057650
 44775.9221423612 26859.7040184518 -1098760.06165875
 19204.1859950739 11444.0695067867 -1099772.80949903
 5278.49225759322 6010.09332803393 -1099970.91611446
 -3068.28063392466 4491.94257211673 -1099986.54905680
 -10882.5408058255 8142.29945715150 -1099916.03009737
 -24275.6778880744 18063.2059881509 -1099583.74490191
 -48521.5750357827 40873.0193669124 -1098168.95468952
 -89736.8470086174 89736.8469814212 -1092654.83872208
 -150357.263804266 185644.985166042 -1073745.14327376
 -218189.534191992 348154.105450980 -1020383.28388244
 -256087.528114539 566020.056917423 -907766.750388767
 -215285.114794759 775474.600492522 -749860.962671595
 -84680.3390177285 898437.698194410 -628998.364582113
 84680.3394082974 898437.698008353 -628998.364795290
 215285.114924351 775474.600024396 -749860.963118505
 256087.527970642 566020.056425955 -907766.750735807
 218189.533969702 348154.105149842 -1020383.28403272
 150357.263645593 185644.985046291 -1073745.14331669
 89736.8469287596 89736.8469482915 -1092654.83873136
 48521.5750031051 40873.0193619887 -1098168.95469115
 24275.6778767604 18063.2059895936 -1099583.74490213
 10882.5408026956 8142.29945880670 -1099916.03009739
 3068.28063336992 4491.94257271630 -1099986.54905680
 -1676.90546886760 3028.10246339242 -1099994.55388812
 -5803.44739980813 5233.87909563435 -1099972.23897146
 -12402.6479947418 10988.1257410448 -1099875.19083550
 -23478.8663010566 23478.8662953519 -1099498.74291638
 -40873.0193870532 48521.5750341830 -1098168.95468884
 -64466.4051004068 94613.8650826448 -1094025.73056924
 -88841.5358154872 169613.937288553 -1083207.41032889
 -100813.080399737 271303.984912369 -1061240.25111705
 -83838.0532362632 376527.917497952 -1030144.60546770
 -33068.1159598467 445013.778717531 -1005419.93040640
 33068.1161111395 445013.778607831 -1005419.93044998
 83838.0532909330 376527.917242380 -1030144.60555667
 100813.080354119 271303.984658766 -1061240.25118622
 88841.5357336113 169613.937125155 -1083207.41036119
 64466.4050334607 94613.8650046827 -1094025.73057992
 40873.0193475238 48521.5750042541 -1098168.95469164
 23478.8662817850 23478.8662858822 -1099498.74291699
 12402.6479865277 10988.1257387450 -1099875.19083561
 5803.44739663789 5233.87909534619 -1099972.23897148
 1676.90546754010 3028.10246342107 -1099994.55388812
 -880.967036230796 1847.04126048295 -1099998.09651456
 -2978.60575138497 3059.96919608332 -1099991.71110345
 -6111.32658274962 6111.32658136665 -1099966.04646453
 -10988.1257455034 12402.6479942389 -1099875.19083546
 -18063.2059993313 24275.6778922556 -1099583.74490163
 -26859.7040285715 44775.9221696091 -1098760.06165739
 -35000.6116471249 76221.0093319674 -1096797.75479381
 -37855.5076642674 117008.126912816 -1093103.86458737
 -30417.6996999420 158234.660202340 -1088134.43831891
 -11791.8779077364 184937.814462527 -1084278.08075107
 11791.8779611037 184937.814420222 -1084278.08075771
 30417.6997226313 158234.660102467 -1088134.43833280
 37855.5076526546 117008.126809045 -1093103.86459888
 35000.6116193904 76221.0092584723 -1096797.75479980
 26859.7040023772 44775.9221292460 -1098760.06165968
 18063.2059815641 24275.6778737574 -1099583.74490233
 10988.1257355430 12402.6479868888 -1099875.19083564
 6111.32657782071 6111.32657881396 -1099966.04646457
 2978.60574909387 3059.96919532770 -1099991.71110346
 880.967035010331 1847.04126033230 -1099998.09651456
 -469.344794916942 967.934036190933 -1099999.47400859
 -1551.55920433362 1551.55920379552 -1099997.81151058
 -3059.96919727609 2978.60575101294 -1099991.71110345
 -5233.87909837048 5803.44740036158 -1099972.23897145
 -8142.29946269363 10882.5408093373 -1099916.03009729
 -11444.0695102206 19204.1860053409 -1099772.80949882
 -14133.5060101401 31320.5249636924 -1099463.17297300
 -14589.3714104424 46323.3699483540 -1098927.33865278
 -11323.3881075293 60958.6421510178 -1098251.25760405
 -4309.64240513971 70241.9339634565 -1097746.55439924
 4309.64242436487 70241.9339489911 -1097746.55440009
 11323.3881169031 60958.6421160279 -1098251.25760589
 14589.3714079181 46323.3699100415 -1098927.33865443
 14133.5060007559 31320.5249342892 -1099463.17297396
 11444.0694999943 19204.1859874800 -1099772.80949923
 8142.29945482653 10882.5408001735 -1099916.03009744
 5233.87909338109 5803.44739624043 -1099972.23897149
 3059.96919447102 2978.60574936108 -1099991.71110346
 1551.55920282729 1551.55920321370 -1099997.81151059
 469.344793986435 967.934036054120 -1099999.47400859
 -298.253549225977 298.253548823596 -1099999.91913165
 -967.934036748769 469.344794495507 -1099999.47400859
 -1847.04126146409 880.967035840211 -1099998.09651456
 -3028.10246512706 1676.90546884383 -1099994.55388811
 -4491.94257490861 3068.28063516917 -1099986.54905678
 -6010.09333014788 5278.49225947333 -1099970.91611444
 -7078.81965870196 8396.67615070304 -1099945.17415272
 -7009.61729811508 12146.0933151949 -1099910.60440497
 -5273.46292965030 15717.3643426491 -1099875.06338077
 -1973.77795256720 17948.3053071534 -1099851.79116879
 1973.77796123799 17948.3053037122 -1099851.79116883
 5273.46293436565 15717.3643341846 -1099875.06338087
 7009.61729770003 12146.0933056126 -1099910.60440508
 7078.81965481219 8396.67614299496 -1099945.17415281
 6010.09332526616 5278.49225452434 -1099970.91611449
 4491.94257071114 3068.28063247606 -1099986.54905681
 3028.10246217523 1676.90546755714 -1099994.55388812
 1847.04125962761 880.967035290902 -1099998.09651457
 967.934035653467 469.344794289100 -1099999.47400859
 298.253548483600 298.253548772552 -1099999.91913165
# End: Data Text
# End: Segment
