# OOMMF OVF 2.0
#
# Segment count: 1
#
# Begin: Segment
# Begin: Header
#
# Title: Oxs_MinDriver::Magnetization
# Desc: Oxs vector field output
# Desc:  MIF source file: /home/marijanbeg/repos/ubermag/oommfc/docs/ipynb/skyrmion/drive-0/skyrmion.mif
# Desc:  Iteration: 134, State id: 314
# Desc:  Stage: 0, Stage iteration: 134
# Desc:  Stage simulation time: -1 s
# Desc:  Total simulation time: -2 s
# meshunit: m
# meshtype: rectangular
# xbase: -4.7499999999999995e-08
# ybase: -4.7499999999999995e-08
# zbase: 2.5000000000000001e-09
# xnodes: 20
# ynodes: 20
# znodes: 2
# xstepsize: 5.0000000000000001e-09
# ystepsize: 5.0000000000000001e-09
# zstepsize: 5.0000000000000001e-09
# xmin: -4.9999999999999998e-08
# ymin: -4.9999999999999998e-08
# zmin: 0
# xmax: 4.9999999999999998e-08
# ymax: 4.9999999999999998e-08
# zmax: 1e-08
# valuedim: 3
# valuelabels: Magnetization_x Magnetization_y Magnetization_z
# valueunits: A/m A/m A/m
#
# End: Header
#
# Begin: Data Text
 -0.00000000000000 -0.00000000000000 -0.00000000000000
 0.00000000000000 -0.00000000000000 -0.00000000000000
 0.00000000000000 0.00000000000000 0.00000000000000
 -0.00000000000000 0.00000000000000 -0.00000000000000
 0.00000000000000 0.00000000000000 -0.00000000000000
 -0.00000000000000 0.00000000000000 -0.00000000000000
 -0.00000000000000 0.00000000000000 -0.00000000000000
 -281691.039942737 -368858.760180185 997293.022664009
 -106633.991128366 -328930.219120049 1044238.52777307
 -27988.7977684362 -315899.111310823 1053292.16206735
 27988.7977684361 -315899.111310823 1053292.16206735
 106633.991128366 -328930.219120049 1044238.52777307
 281691.039942737 -368858.760180185 997293.022664009
 0.00000000000000 0.00000000000000 0.00000000000000
 0.00000000000000 -0.00000000000000 0.00000000000000
 0.00000000000000 -0.00000000000000 0.00000000000000
 0.00000000000000 0.00000000000000 0.00000000000000
 -0.00000000000000 -0.00000000000000 -0.00000000000000
 0.00000000000000 0.00000000000000 0.00000000000000
 0.00000000000000 0.00000000000000 -0.00000000000000
 0.00000000000000 -0.00000000000000 -0.00000000000000
 0.00000000000000 -0.00000000000000 0.00000000000000
 0.00000000000000 -0.00000000000000 -0.00000000000000
 -0.00000000000000 -0.00000000000000 0.00000000000000
 0.00000000000000 -0.00000000000000 -0.00000000000000
 -288485.295018514 -351184.881894041 1001721.22533525
 -116543.352421543 -278647.419913502 1057720.78658874
 -83287.1511797664 -149767.641825842 1086569.32770546
 -40391.7893821956 -103603.124453294 1094365.06521088
 -11663.5206531264 -84139.4228883503 1096715.33216327
 11663.5206531265 -84139.4228883509 1096715.33216327
 40391.7893821955 -103603.124453294 1094365.06521088
 83287.1511797665 -149767.641825842 1086569.32770546
 116543.352421543 -278647.419913502 1057720.78658874
 288485.295018514 -351184.881894041 1001721.22533525
 0.00000000000000 0.00000000000000 -0.00000000000000
 -0.00000000000000 0.00000000000000 -0.00000000000000
 -0.00000000000000 0.00000000000000 -0.00000000000000
 0.00000000000000 0.00000000000000 0.00000000000000
 -0.00000000000000 0.00000000000000 0.00000000000000
 0.00000000000000 0.00000000000000 0.00000000000000
 -0.00000000000000 -0.00000000000000 0.00000000000000
 0.00000000000000 0.00000000000000 0.00000000000000
 -323727.848882479 -367825.658922125 984837.328951552
 -138936.607174125 -289694.441851703 1052033.15040315
 -89339.8437850635 -145410.458549999 1086680.35357999
 -36890.9543900314 -70103.0924778387 1097143.84376400
 -11615.0087476301 5579.61419761095 1099924.52444574
 1099.43064466057 53466.0489351093 1098699.30957634
 1839.87990110366 78786.7486163925 1097173.30585665
 -1839.87990110376 78786.7486163935 1097173.30585665
 -1099.43064466032 53466.0489351085 1098699.30957634
 11615.0087476298 5579.61419761161 1099924.52444574
 36890.9543900317 -70103.0924778392 1097143.84376400
 89339.8437850632 -145410.458549998 1086680.35357999
 138936.607174125 -289694.441851703 1052033.15040315
 323727.848882479 -367825.658922125 984837.328951552
 0.00000000000000 -0.00000000000000 0.00000000000000
 0.00000000000000 -0.00000000000000 -0.00000000000000
 0.00000000000000 -0.00000000000000 -0.00000000000000
 -0.00000000000000 0.00000000000000 -0.00000000000000
 -0.00000000000000 -0.00000000000000 0.00000000000000
 -367825.658922125 -323727.848882479 984837.328951552
 -174906.809085044 -174906.809085044 1071827.97886199
 -68451.3506374048 -98922.0601568215 1093402.41384874
 -9775.24424530958 -12623.8066041664 1099884.12303604
 30019.3593149551 67161.0048818838 1097537.35129588
 47913.0682369037 152440.782985228 1088331.81777203
 42972.4665854350 226075.561622369 1075659.42916552
 17178.0237790272 270374.412575282 1066115.65626044
 -17178.0237790271 270374.412575280 1066115.65626044
 -42972.4665854354 226075.561622370 1075659.42916552
 -47913.0682369032 152440.782985227 1088331.81777203
 -30019.3593149557 67161.0048818844 1097537.35129588
 9775.24424531009 -12623.8066041667 1099884.12303604
 68451.3506374044 -98922.0601568213 1093402.41384874
 174906.809085044 -174906.809085044 1071827.97886199
 367825.658922125 -323727.848882479 984837.328951552
 0.00000000000000 0.00000000000000 0.00000000000000
 0.00000000000000 -0.00000000000000 -0.00000000000000
 -0.00000000000000 -0.00000000000000 0.00000000000000
 0.00000000000000 0.00000000000000 0.00000000000000
 -289694.441851702 -138936.607174125 1052033.15040315
 -98922.0601568214 -68451.3506374050 1093402.41384874
 497.166515291556 497.166515291570 1099999.77529585
 69181.8679446674 89145.9068120395 1094196.90935697
 119329.703028760 203045.717318248 1074491.90720721
 140743.924143487 343494.002109977 1035472.36483219
 117423.621543746 482233.040658253 981663.377946354
 46263.5433862808 570605.551812925 939291.748496501
 -46263.5433862809 570605.551812926 939291.748496500
 -117423.621543746 482233.040658252 981663.377946355
 -140743.924143487 343494.002109977 1035472.36483219
 -119329.703028759 203045.717318247 1074491.90720721
 -69181.8679446681 89145.9068120398 1094196.90935697
 -497.166515291038 497.166515291292 1099999.77529585
 98922.0601568211 -68451.3506374048 1093402.41384874
 289694.441851703 -138936.607174125 1052033.15040315
 0.00000000000000 0.00000000000000 0.00000000000000
 -0.00000000000000 0.00000000000000 0.00000000000000
 -0.00000000000000 0.00000000000000 -0.00000000000000
 -351184.881894041 -288485.295018514 1001721.22533525
 -145410.458549999 -89339.8437850635 1086680.35357999
 -12623.8066041664 -9775.24424530957 1099884.12303604
 89145.9068120396 69181.8679446672 1094196.90935697
 186619.904787523 186619.904787523 1067869.85268533
 278093.097978399 370598.477558369 997657.755589659
 327697.729439649 619142.224874130 848102.059600147
 276520.521937905 857158.036009754 631519.201807111
 108902.721577296 991817.845161650 463074.032150325
 -108902.721577295 991817.845161649 463074.032150325
 -276520.521937905 857158.036009754 631519.201807110
 -327697.729439648 619142.224874130 848102.059600147
 -278093.097978399 370598.477558369 997657.755589659
 -186619.904787523 186619.904787523 1067869.85268533
 -89145.9068120402 69181.8679446672 1094196.90935697
 12623.8066041669 -9775.24424530965 1099884.12303604
 145410.458549999 -89339.8437850636 1086680.35357999
 351184.881894041 -288485.295018514 1001721.22533525
 0.00000000000000 -0.00000000000000 0.00000000000000
 -0.00000000000000 0.00000000000000 -0.00000000000000
 -278647.419913502 -116543.352421543 1057720.78658874
 -70103.0924778388 -36890.9543900314 1097143.84376400
 67161.0048818837 30019.3593149549 1097537.35129588
 203045.717318247 119329.703028760 1074491.90720721
 370598.477558369 278093.097978398 997657.755589659
 553663.002466865 553663.002466864 772602.458835560
 622718.723572954 854496.320031540 303409.674144098
 453053.453359550 979467.254696341 -213040.994591647
 155893.522232323 976354.956762053 -482108.087602947
 -155893.522232323 976354.956762052 -482108.087602948
 -453053.453359550 979467.254696342 -213040.994591647
 -622718.723572955 854496.320031540 303409.674144097
 -553663.002466864 553663.002466865 772602.458835560
 -370598.477558370 278093.097978398 997657.755589659
 -203045.717318247 119329.703028760 1074491.90720721
 -67161.0048818842 30019.3593149548 1097537.35129588
 70103.0924778391 -36890.9543900314 1097143.84376400
 278647.419913502 -116543.352421543 1057720.78658874
 -0.00000000000000 0.00000000000000 0.00000000000000
 -368858.760180185 -281691.039942737 997293.022664009
 -149767.641825842 -83287.1511797664 1086569.32770546
 5579.61419761065 -11615.0087476303 1099924.52444574
 152440.782985228 47913.0682369037 1088331.81777203
 343494.002109976 140743.924143486 1035472.36483219
 619142.224874130 327697.729439648 848102.059600147
 854496.320031540 622718.723572953 303409.674144099
 719709.156882609 719709.156882609 -417177.970413885
 401528.590809617 641812.416131634 -798029.832313127
 124413.776231888 582311.455926850 -924897.064856449
 -124413.776231888 582311.455926852 -924897.064856447
 -401528.590809618 641812.416131632 -798029.832313128
 -719709.156882608 719709.156882610 -417177.970413885
 -854496.320031541 622718.723572953 303409.674144098
 -619142.224874129 327697.729439649 848102.059600147
 -343494.002109977 140743.924143486 1035472.36483219
 -152440.782985227 47913.0682369039 1088331.81777203
 -5579.61419761100 -11615.0087476304 1099924.52444574
 149767.641825842 -83287.1511797663 1086569.32770546
 368858.760180185 -281691.039942737 997293.022664009
 -328930.219120049 -106633.991128366 1044238.52777307
 -103603.124453294 -40391.7893821957 1094365.06521088
 53466.0489351091 1099.43064466059 1098699.30957634
 226075.561622368 42972.4665854348 1075659.42916552
 482233.040658252 117423.621543746 981663.377946354
 857158.036009753 276520.521937904 631519.201807113
 979467.254696342 453053.453359550 -213040.994591646
 641812.416131635 401528.590809617 -798029.832313126
 329196.226221232 329196.226221232 -996624.146448098
 100892.962223968 295664.936348233 -1054705.10361327
 -100892.962223968 295664.936348229 -1054705.10361327
 -329196.226221231 329196.226221235 -996624.146448097
 -641812.416131635 401528.590809614 -798029.832313127
 -979467.254696341 453053.453359552 -213040.994591645
 -857158.036009753 276520.521937903 631519.201807112
 -482233.040658252 117423.621543747 981663.377946355
 -226075.561622368 42972.4665854344 1075659.42916552
 -53466.0489351089 1099.43064466082 1098699.30957634
 103603.124453294 -40391.7893821958 1094365.06521088
 328930.219120049 -106633.991128366 1044238.52777307
 -315899.111310823 -27988.7977684362 1053292.16206735
 -84139.4228883504 -11663.5206531264 1096715.33216327
 78786.7486163921 1839.87990110360 1097173.30585665
 270374.412575281 17178.0237790273 1066115.65626044
 570605.551812924 46263.5433862806 939291.748496502
 991817.845161649 108902.721577296 463074.032150327
 976354.956762054 155893.522232323 -482108.087602945
 582311.455926850 124413.776231888 -924897.064856449
 295664.936348234 100892.962223968 -1054705.10361326
 91174.6871031695 91174.6871031702 -1092416.74871053
 -91174.6871031694 91174.6871031748 -1092416.74871053
 -295664.936348234 100892.962223963 -1054705.10361327
 -582311.455926850 124413.776231891 -924897.064856448
 -976354.956762054 155893.522232321 -482108.087602945
 -991817.845161649 108902.721577296 463074.032150327
 -570605.551812924 46263.5433862798 939291.748496501
 -270374.412575281 17178.0237790277 1066115.65626044
 -78786.7486163921 1839.87990110330 1097173.30585665
 84139.4228883505 -11663.5206531263 1096715.33216327
 315899.111310823 -27988.7977684363 1053292.16206735
 -315899.111310823 27988.7977684362 1053292.16206735
 -84139.4228883512 11663.5206531265 1096715.33216327
 78786.7486163932 -1839.87990110367 1097173.30585665
 270374.412575280 -17178.0237790270 1066115.65626044
 570605.551812925 -46263.5433862806 939291.748496501
 991817.845161648 -108902.721577295 463074.032150328
 976354.956762053 -155893.522232323 -482108.087602946
 582311.455926853 -124413.776231888 -924897.064856447
 295664.936348229 -100892.962223968 -1054705.10361327
 91174.6871031757 -91174.6871031699 -1092416.74871053
 -91174.6871031756 -91174.6871031746 -1092416.74871053
 -295664.936348229 -100892.962223964 -1054705.10361327
 -582311.455926853 -124413.776231891 -924897.064856446
 -976354.956762053 -155893.522232321 -482108.087602946
 -991817.845161648 -108902.721577296 463074.032150328
 -570605.551812925 -46263.5433862800 939291.748496501
 -270374.412575280 -17178.0237790275 1066115.65626044
 -78786.7486163933 -1839.87990110340 1097173.30585665
 84139.4228883513 11663.5206531263 1096715.33216327
 315899.111310823 27988.7977684362 1053292.16206735
 -328930.219120049 106633.991128366 1044238.52777307
 -103603.124453294 40391.7893821955 1094365.06521088
 53466.0489351081 -1099.43064466026 1098699.30957634
 226075.561622369 -42972.4665854352 1075659.42916552
 482233.040658252 -117423.621543746 981663.377946355
 857158.036009753 -276520.521937904 631519.201807111
 979467.254696342 -453053.453359549 -213040.994591645
 641812.416131632 -401528.590809617 -798029.832313128
 329196.226221236 -329196.226221231 -996624.146448097
 100892.962223963 -295664.936348233 -1054705.10361327
 -100892.962223963 -295664.936348229 -1054705.10361327
 -329196.226221236 -329196.226221234 -996624.146448096
 -641812.416131633 -401528.590809615 -798029.832313129
 -979467.254696342 -453053.453359551 -213040.994591644
 -857158.036009754 -276520.521937904 631519.201807112
 -482233.040658251 -117423.621543746 981663.377946355
 -226075.561622370 -42972.4665854348 1075659.42916552
 -53466.0489351078 -1099.43064466053 1098699.30957634
 103603.124453294 40391.7893821956 1094365.06521088
 328930.219120049 106633.991128366 1044238.52777307
 -368858.760180185 281691.039942737 997293.022664009
 -149767.641825842 83287.1511797666 1086569.32770546
 5579.61419761158 11615.0087476299 1099924.52444574
 152440.782985227 -47913.0682369030 1088331.81777203
 343494.002109977 -140743.924143487 1035472.36483219
 619142.224874130 -327697.729439647 848102.059600148
 854496.320031540 -622718.723572954 303409.674144097
 719709.156882610 -719709.156882608 -417177.970413885
 401528.590809614 -641812.416131634 -798029.832313128
 124413.776231892 -582311.455926849 -924897.064856448
 -124413.776231892 -582311.455926852 -924897.064856447
 -401528.590809615 -641812.416131633 -798029.832313129
 -719709.156882610 -719709.156882609 -417177.970413884
 -854496.320031541 -622718.723572953 303409.674144097
 -619142.224874129 -327697.729439648 848102.059600148
 -343494.002109978 -140743.924143487 1035472.36483219
 -152440.782985226 -47913.0682369033 1088331.81777203
 -5579.61419761185 11615.0087476300 1099924.52444574
 149767.641825843 83287.1511797665 1086569.32770546
 368858.760180185 281691.039942737 997293.022664009
 -0.00000000000000 0.00000000000000 0.00000000000000
 -278647.419913502 116543.352421543 1057720.78658874
 -70103.0924778393 36890.9543900318 1097143.84376400
 67161.0048818844 -30019.3593149556 1097537.35129588
 203045.717318247 -119329.703028759 1074491.90720721
 370598.477558370 -278093.097978399 997657.755589659
 553663.002466865 -553663.002466864 772602.458835560
 622718.723572953 -854496.320031541 303409.674144096
 453053.453359552 -979467.254696341 -213040.994591648
 155893.522232321 -976354.956762053 -482108.087602947
 -155893.522232321 -976354.956762052 -482108.087602948
 -453053.453359552 -979467.254696341 -213040.994591646
 -622718.723572954 -854496.320031540 303409.674144096
 -553663.002466864 -553663.002466864 772602.458835561
 -370598.477558370 -278093.097978399 997657.755589658
 -203045.717318246 -119329.703028759 1074491.90720721
 -67161.0048818850 -30019.3593149555 1097537.35129588
 70103.0924778397 36890.9543900318 1097143.84376400
 278647.419913502 116543.352421543 1057720.78658874
 -0.00000000000000 0.00000000000000 0.00000000000000
 -0.00000000000000 -0.00000000000000 0.00000000000000
 -351184.881894041 288485.295018514 1001721.22533525
 -145410.458549998 89339.8437850633 1086680.35357999
 -12623.8066041668 9775.24424531025 1099884.12303604
 89145.9068120401 -69181.8679446681 1094196.90935697
 186619.904787523 -186619.904787522 1067869.85268533
 278093.097978398 -370598.477558370 997657.755589659
 327697.729439650 -619142.224874130 848102.059600147
 276520.521937904 -857158.036009755 631519.201807110
 108902.721577297 -991817.845161650 463074.032150324
 -108902.721577297 -991817.845161649 463074.032150325
 -276520.521937904 -857158.036009755 631519.201807110
 -327697.729439649 -619142.224874129 848102.059600147
 -278093.097978399 -370598.477558370 997657.755589658
 -186619.904787522 -186619.904787522 1067869.85268533
 -89145.9068120408 -69181.8679446681 1094196.90935697
 12623.8066041674 9775.24424531030 1099884.12303604
 145410.458549998 89339.8437850633 1086680.35357999
 351184.881894041 288485.295018514 1001721.22533525
 -0.00000000000000 0.00000000000000 -0.00000000000000
 -0.00000000000000 0.00000000000000 0.00000000000000
 0.00000000000000 -0.00000000000000 0.00000000000000
 -289694.441851703 138936.607174125 1052033.15040315
 -98922.0601568212 68451.3506374044 1093402.41384874
 497.166515291366 -497.166515290851 1099999.77529585
 69181.8679446676 -89145.9068120405 1094196.90935697
 119329.703028760 -203045.717318247 1074491.90720721
 140743.924143486 -343494.002109978 1035472.36483219
 117423.621543747 -482233.040658253 981663.377946354
 46263.5433862798 -570605.551812925 939291.748496501
 -46263.5433862801 -570605.551812926 939291.748496500
 -117423.621543747 -482233.040658252 981663.377946355
 -140743.924143487 -343494.002109978 1035472.36483219
 -119329.703028759 -203045.717318246 1074491.90720721
 -69181.8679446683 -89145.9068120408 1094196.90935697
 -497.166515290725 -497.166515290555 1099999.77529585
 98922.0601568208 68451.3506374043 1093402.41384874
 289694.441851703 138936.607174125 1052033.15040315
 0.00000000000000 -0.00000000000000 -0.00000000000000
 -0.00000000000000 -0.00000000000000 0.00000000000000
 -0.00000000000000 0.00000000000000 -0.00000000000000
 0.00000000000000 -0.00000000000000 -0.00000000000000
 -367825.658922125 323727.848882479 984837.328951552
 -174906.809085044 174906.809085044 1071827.97886199
 -68451.3506374047 98922.0601568210 1093402.41384874
 -9775.24424530956 12623.8066041670 1099884.12303604
 30019.3593149550 -67161.0048818846 1097537.35129588
 47913.0682369041 -152440.782985228 1088331.81777203
 42972.4665854345 -226075.561622369 1075659.42916552
 17178.0237790279 -270374.412575282 1066115.65626044
 -17178.0237790277 -270374.412575280 1066115.65626044
 -42972.4665854349 -226075.561622370 1075659.42916552
 -47913.0682369036 -152440.782985227 1088331.81777203
 -30019.3593149556 -67161.0048818852 1097537.35129588
 9775.24424531013 12623.8066041674 1099884.12303604
 68451.3506374043 98922.0601568208 1093402.41384874
 174906.809085044 174906.809085044 1071827.97886199
 367825.658922125 323727.848882479 984837.328951552
 -0.00000000000000 -0.00000000000000 0.00000000000000
 -0.00000000000000 0.00000000000000 -0.00000000000000
 -0.00000000000000 0.00000000000000 0.00000000000000
 0.00000000000000 -0.00000000000000 -0.00000000000000
 0.00000000000000 0.00000000000000 0.00000000000000
 -323727.848882479 367825.658922125 984837.328951552
 -138936.607174125 289694.441851703 1052033.15040315
 -89339.8437850635 145410.458549998 1086680.35357999
 -36890.9543900313 70103.0924778391 1097143.84376400
 -11615.0087476303 -5579.61419761139 1099924.52444574
 1099.43064466088 -53466.0489351091 1098699.30957634
 1839.87990110324 -78786.7486163926 1097173.30585665
 -1839.87990110337 -78786.7486163937 1097173.30585665
 -1099.43064466066 -53466.0489351082 1098699.30957634
 11615.0087476300 -5579.61419761205 1099924.52444574
 36890.9543900316 70103.0924778396 1097143.84376400
 89339.8437850633 145410.458549998 1086680.35357999
 138936.607174125 289694.441851703 1052033.15040315
 323727.848882479 367825.658922125 984837.328951552
 -0.00000000000000 -0.00000000000000 -0.00000000000000
 0.00000000000000 -0.00000000000000 -0.00000000000000
 0.00000000000000 0.00000000000000 0.00000000000000
 -0.00000000000000 -0.00000000000000 -0.00000000000000
 0.00000000000000 -0.00000000000000 -0.00000000000000
 0.00000000000000 0.00000000000000 -0.00000000000000
 -0.00000000000000 -0.00000000000000 0.00000000000000
 0.00000000000000 0.00000000000000 0.00000000000000
 -288485.295018514 351184.881894041 1001721.22533525
 -116543.352421543 278647.419913502 1057720.78658874
 -83287.1511797663 149767.641825842 1086569.32770546
 -40391.7893821958 103603.124453294 1094365.06521088
 -11663.5206531262 84139.4228883503 1096715.33216327
 11663.5206531262 84139.4228883510 1096715.33216327
 40391.7893821957 103603.124453293 1094365.06521088
 83287.1511797664 149767.641825842 1086569.32770546
 116543.352421543 278647.419913502 1057720.78658874
 288485.295018514 351184.881894041 1001721.22533525
 0.00000000000000 -0.00000000000000 0.00000000000000
 -0.00000000000000 -0.00000000000000 -0.00000000000000
 -0.00000000000000 -0.00000000000000 0.00000000000000
 -0.00000000000000 -0.00000000000000 -0.00000000000000
 -0.00000000000000 -0.00000000000000 0.00000000000000
 -0.00000000000000 -0.00000000000000 -0.00000000000000
 0.00000000000000 0.00000000000000 -0.00000000000000
 -0.00000000000000 0.00000000000000 -0.00000000000000
 0.00000000000000 -0.00000000000000 0.00000000000000
 0.00000000000000 0.00000000000000 0.00000000000000
 0.00000000000000 0.00000000000000 -0.00000000000000
 0.00000000000000 0.00000000000000 0.00000000000000
 -281691.039942737 368858.760180185 997293.022664009
 -106633.991128366 328930.219120049 1044238.52777307
 -27988.7977684363 315899.111310823 1053292.16206735
 27988.7977684362 315899.111310823 1053292.16206735
 106633.991128366 328930.219120049 1044238.52777307
 281691.039942737 368858.760180184 997293.022664009
 0.00000000000000 0.00000000000000 0.00000000000000
 -0.00000000000000 0.00000000000000 -0.00000000000000
 0.00000000000000 -0.00000000000000 -0.00000000000000
 -0.00000000000000 -0.00000000000000 -0.00000000000000
 -0.00000000000000 0.00000000000000 0.00000000000000
 -0.00000000000000 0.00000000000000 -0.00000000000000
 -0.00000000000000 -0.00000000000000 0.00000000000000
 -0.00000000000000 0.00000000000000 0.00000000000000
 -0.00000000000000 -0.00000000000000 -0.00000000000000
 -0.00000000000000 0.00000000000000 -0.00000000000000
 -0.00000000000000 0.00000000000000 -0.00000000000000
 0.00000000000000 0.00000000000000 0.00000000000000
 -0.00000000000000 -0.00000000000000 0.00000000000000
 -0.00000000000000 -0.00000000000000 -0.00000000000000
 -310354.036646731 -459607.194049957 949969.262194628
 -122532.917970890 -422645.684847494 1008144.98416316
 -32404.0594694917 -410771.439998843 1019910.19262049
 32404.0594694917 -410771.439998843 1019910.19262049
 122532.917970890 -422645.684847494 1008144.98416316
 310354.036646731 -459607.194049957 949969.262194628
 -0.00000000000000 -0.00000000000000 -0.00000000000000
 -0.00000000000000 -0.00000000000000 -0.00000000000000
 -0.00000000000000 -0.00000000000000 -0.00000000000000
 0.00000000000000 -0.00000000000000 -0.00000000000000
 0.00000000000000 -0.00000000000000 -0.00000000000000
 0.00000000000000 -0.00000000000000 0.00000000000000
 0.00000000000000 0.00000000000000 0.00000000000000
 0.00000000000000 -0.00000000000000 -0.00000000000000
 0.00000000000000 -0.00000000000000 0.00000000000000
 0.00000000000000 -0.00000000000000 0.00000000000000
 -0.00000000000000 -0.00000000000000 0.00000000000000
 -0.00000000000000 -0.00000000000000 -0.00000000000000
 -330766.985002698 -436646.407138962 953904.144432165
 -154631.579857133 -358920.884106806 1028233.86127032
 -110784.799307844 -218677.788151761 1072337.05205564
 -53602.2195861580 -161154.430011614 1086810.03480050
 -15267.8054975035 -137082.405109134 1091318.15174347
 15267.8054975035 -137082.405109133 1091318.15174347
 53602.2195861581 -161154.430011614 1086810.03480050
 110784.799307844 -218677.788151761 1072337.05205564
 154631.579857133 -358920.884106806 1028233.86127032
 330766.985002698 -436646.407138962 953904.144432165
 -0.00000000000000 -0.00000000000000 -0.00000000000000
 -0.00000000000000 -0.00000000000000 0.00000000000000
 -0.00000000000000 0.00000000000000 0.00000000000000
 -0.00000000000000 -0.00000000000000 -0.00000000000000
 -0.00000000000000 0.00000000000000 0.00000000000000
 0.00000000000000 0.00000000000000 -0.00000000000000
 -0.00000000000000 -0.00000000000000 0.00000000000000
 0.00000000000000 0.00000000000000 -0.00000000000000
 -376428.595561022 -443559.257508491 933572.009821670
 -186146.712908306 -365218.039501627 1020766.95915180
 -125146.843358912 -209040.925807790 1072678.96359289
 -58446.8547245763 -113728.714879241 1092542.78844571
 -22490.2651392132 -18501.9502666553 1099614.41687998
 -2503.07164179436 44244.4111378417 1099106.98601884
 1255.38453074486 77003.1840580619 1097300.74895381
 -1255.38453074477 77003.1840580609 1097300.74895381
 2503.07164179413 44244.4111378426 1099106.98601884
 22490.2651392135 -18501.9502666559 1099614.41687998
 58446.8547245760 -113728.714879240 1092542.78844571
 125146.843358912 -209040.925807790 1072678.96359289
 186146.712908306 -365218.039501627 1020766.95915180
 376428.595561022 -443559.257508491 933572.009821670
 0.00000000000000 0.00000000000000 -0.00000000000000
 -0.00000000000000 -0.00000000000000 0.00000000000000
 0.00000000000000 -0.00000000000000 0.00000000000000
 0.00000000000000 -0.00000000000000 -0.00000000000000
 0.00000000000000 0.00000000000000 -0.00000000000000
 -443559.257508491 -376428.595561022 933572.009821670
 -232380.931745500 -232380.931745500 1049761.02286291
 -101742.547333031 -143366.812198827 1085861.13809369
 -24147.6162916932 -36517.7587637259 1099128.44832727
 30038.8254781325 66900.2152277692 1097552.74596093
 55841.4330635289 174446.276584436 1084642.90480288
 51690.3296335080 264796.435926456 1066400.93648825
 20832.7194692264 317688.521008244 1052919.75070236
 -20832.7194692266 317688.521008245 1052919.75070236
 -51690.3296335075 264796.435926455 1066400.93648825
 -55841.4330635294 174446.276584437 1084642.90480288
 -30038.8254781320 66900.2152277687 1097552.74596093
 24147.6162916927 -36517.7587637256 1099128.44832727
 101742.547333032 -143366.812198828 1085861.13809369
 232380.931745499 -232380.931745500 1049761.02286291
 443559.257508491 -376428.595561022 933572.009821670
 -0.00000000000000 0.00000000000000 -0.00000000000000
 -0.00000000000000 0.00000000000000 0.00000000000000
 -0.00000000000000 0.00000000000000 0.00000000000000
 0.00000000000000 0.00000000000000 -0.00000000000000
 -365218.039501627 -186146.712908306 1020766.95915180
 -143366.812198827 -101742.547333031 1085861.13809369
 -12853.3104738818 -12853.3104738820 1099849.80102727
 79190.1232875310 100489.182540275 1092534.14068673
 144238.610142443 240956.918464244 1063548.30016713
 169410.295402901 402813.615106592 1009475.77647820
 138809.365566036 551987.446314231 941297.943874653
 53945.1349399121 642465.237705175 891250.997618936
 -53945.1349399117 642465.237705174 891250.997618936
 -138809.365566036 551987.446314232 941297.943874652
 -169410.295402901 402813.615106592 1009475.77647820
 -144238.610142444 240956.918464245 1063548.30016713
 -79190.1232875305 100489.182540274 1092534.14068673
 12853.3104738813 -12853.3104738818 1099849.80102727
 143366.812198828 -101742.547333031 1085861.13809369
 365218.039501627 -186146.712908306 1020766.95915180
 0.00000000000000 -0.00000000000000 0.00000000000000
 -0.00000000000000 0.00000000000000 -0.00000000000000
 0.00000000000000 -0.00000000000000 -0.00000000000000
 -436646.407138962 -330766.985002698 953904.144432165
 -209040.925807790 -125146.843358912 1072678.96359289
 -36517.7587637259 -24147.6162916934 1099128.44832727
 100489.182540275 79190.1232875310 1092534.14068673
 224134.820342640 224134.820342639 1053340.95364224
 325538.837115288 429232.550514435 959053.639328113
 363704.952853613 674782.785157540 788915.014513467
 292304.008442425 889822.211228611 576866.361519474
 112257.073081323 1007865.53207470 426151.872926774
 -112257.073081323 1007865.53207470 426151.872926773
 -292304.008442424 889822.211228611 576866.361519474
 -363704.952853613 674782.785157540 788915.014513467
 -325538.837115287 429232.550514435 959053.639328114
 -224134.820342640 224134.820342640 1053340.95364224
 -100489.182540274 79190.1232875309 1092534.14068673
 36517.7587637255 -24147.6162916934 1099128.44832727
 209040.925807790 -125146.843358912 1072678.96359289
 436646.407138962 -330766.985002698 953904.144432165
 0.00000000000000 0.00000000000000 -0.00000000000000
 -0.00000000000000 0.00000000000000 -0.00000000000000
 -358920.884106806 -154631.579857133 1028233.86127032
 -113728.714879241 -58446.8547245764 1092542.78844571
 66900.2152277692 30038.8254781325 1097552.74596093
 240956.918464244 144238.610142443 1063548.30016713
 429232.550514435 325538.837115288 959053.639328113
 593252.051939655 593252.051939655 711409.871831125
 623370.740536730 857491.544435976 293457.272977676
 452838.337361235 994009.991501345 -129929.123030248
 160319.081717786 1026010.84786021 -362766.498053965
 -160319.081717786 1026010.84786021 -362766.498053964
 -452838.337361235 994009.991501344 -129929.123030249
 -623370.740536729 857491.544435976 293457.272977676
 -593252.051939656 593252.051939655 711409.871831125
 -429232.550514434 325538.837115288 959053.639328114
 -240956.918464245 144238.610142443 1063548.30016713
 -66900.2152277686 30038.8254781325 1097552.74596093
 113728.714879241 -58446.8547245765 1092542.78844571
 358920.884106806 -154631.579857133 1028233.86127032
 -0.00000000000000 0.00000000000000 0.00000000000000
 -459607.194049957 -310354.036646731 949969.262194627
 -218677.788151762 -110784.799307844 1072337.05205564
 -18501.9502666554 -22490.2651392132 1099614.41687998
 174446.276584436 55841.4330635286 1084642.90480288
 402813.615106592 169410.295402901 1009475.77647820