# vtk DataFile Version 3.0
Field
ASCII
DATASET RECTILINEAR_GRID
DIMENSIONS 5 1 2
X_COORDINATES 5 float
5e-10 1.5000000000000002e-09 2.5e-09 3.5000000000000003e-09 4.500000000000001e-09
Y_COORDINATES 1 float
5e-10
Z_COORDINATES 2 float
5e-10 1.5000000000000002e-09
POINT_DATA 10
SCALARS field double
LOOKUP_TABLE default
0.04819501865021647
0.0005872943689430032
0.2958738763949391
0.0034740213934203457
0.023885331721432368
0.8856115619659284
0.33225155225772973
0.5211658584040515
0.06235650958058758
0.32367237821583694