# vtk DataFile Version 3.0
Field
ASCII
DATASET STRUCTURED_POINTS
DIMENSIONS 10 3 2
SPACINGS 1e-09 1e-09 1e-09
ORIGIN 5e-10 5e-10 5e-10
POINT_DATA 60
SCALARS x-component double
LOOKUP_TABLE default
577350.2691896259
904534.0337332909
962250.4486493763
980196.0588196068
987878.3399072131
991836.5981341754
994134.8467724342
995584.9673999579
996557.6489929337
997241.3740548082
301511.3445777636
688247.2016116853
845154.2547285166
911322.3768657671
943456.3530497266
961074.4623271417
971665.6205775166
978492.1095801633
983135.3843426084
986430.8501372136
192450.08972987527
507092.55283710995
700140.0420140048
808290.3768654761
870062.8401410973
907264.7087265549
930949.3362512627
946791.6046467047
957841.4886923188
965824.2787731629
301511.3445777636
688247.2016116853
845154.2547285166
911322.3768657671
943456.3530497266
961074.4623271417
971665.6205775166
978492.1095801633
983135.3843426084
986430.8501372136
229415.73387056176
577350.2691896257
762492.8516630233
855186.1104941366
904534.0337332909
933007.822647968
950654.1513652698
962250.4486493763
970241.2474100944
975964.4441812768
169030.8509457033
457495.71099781414
650944.5549041193
768349.8199278325
839254.3274162825
883541.2617927487
912421.1282466755
932054.6490018001
945905.3029269173
955993.7503105925
SCALARS y-component double
LOOKUP_TABLE default
577350.2691896259
301511.3445777636
192450.08972987527
140028.00840280094
109764.25998969031
90166.96346674321
76471.91129018726
66372.3311599972
58621.03817605492
52486.388108147796
904534.0337332909
688247.2016116853
507092.55283710995
390566.73294247163
314485.4510165755
262111.21699831137
224230.5278255808
195698.42191603268
173494.4795898721
155752.23949534952
962250.4486493763
845154.2547285166
700140.0420140048
577350.2691896257
483368.24452283175
412393.04942116124
358057.4370197164
315597.2015489015
281718.0849095055
254164.28388767448
301511.3445777636
229415.73387056176
169030.8509457033
130188.91098082386
104828.48367219181
87370.40566610378
74743.50927519359
65232.80730534421
57831.49319662402
51917.4131651165
688247.2016116853
577350.2691896257
457495.71099781414
366508.3330689157
301511.34457776364
254456.67890399127
219381.72723813922
192450.08972987527
171219.0436606049
154099.64908125426
845154.2547285166
762492.8516630233
650944.5549041193
548821.2999484517
466252.40412015683
401609.66445124935
350931.2031717982
310684.88300060004
278207.4420373286
251577.3027133138
SCALARS z-component double
LOOKUP_TABLE default
577350.2691896259
301511.3445777636
192450.08972987527
140028.00840280094
109764.25998969031
90166.96346674321
76471.91129018726
66372.3311599972
58621.03817605492
52486.388108147796
301511.3445777636
229415.73387056176
169030.8509457033
130188.91098082386
104828.48367219181
87370.40566610378
74743.50927519359
65232.80730534421
57831.49319662402
51917.4131651165
192450.08972987527
169030.8509457033
140028.00840280097
115470.05383792514
96673.64890456635
82478.60988423224
71611.48740394329
63119.44030978031
56343.616981901105
50832.85677753489
904534.0337332909
688247.2016116853
507092.55283710995
390566.73294247163
314485.4510165755
262111.21699831137
224230.5278255808
195698.42191603268
173494.4795898721
155752.23949534952
688247.2016116853
577350.2691896257
457495.71099781414
366508.3330689157
301511.34457776364
254456.67890399127
219381.72723813922
192450.08972987527
171219.0436606049
154099.64908125426
507092.55283710995
457495.71099781414
390566.7329424717
329292.7799690711
279751.44247209415
240965.79867074965
210558.721903079
186410.92980036003
166924.4652223972
150946.3816279883
VECTORS field double
577350.2691896259 577350.2691896259 577350.2691896259
904534.0337332909 301511.3445777636 301511.3445777636
962250.4486493763 192450.08972987527 192450.08972987527
980196.0588196068 140028.00840280094 140028.00840280094
987878.3399072131 109764.25998969031 109764.25998969031
991836.5981341754 90166.96346674321 90166.96346674321
994134.8467724342 76471.91129018726 76471.91129018726
995584.9673999579 66372.3311599972 66372.3311599972
996557.6489929337 58621.03817605492 58621.03817605492
997241.3740548082 52486.388108147796 52486.388108147796
301511.3445777636 904534.0337332909 301511.3445777636
688247.2016116853 688247.2016116853 229415.73387056176
845154.2547285166 507092.55283710995 169030.8509457033
911322.3768657671 390566.73294247163 130188.91098082386
943456.3530497266 314485.4510165755 104828.48367219181
961074.4623271417 262111.21699831137 87370.40566610378
971665.6205775166 224230.5278255808 74743.50927519359
978492.1095801633 195698.42191603268 65232.80730534421
983135.3843426084 173494.4795898721 57831.49319662402
986430.8501372136 155752.23949534952 51917.4131651165
192450.08972987527 962250.4486493763 192450.08972987527
507092.55283710995 845154.2547285166 169030.8509457033
700140.0420140048 700140.0420140048 140028.00840280097
808290.3768654761 577350.2691896257 115470.05383792514
870062.8401410973 483368.24452283175 96673.64890456635
907264.7087265549 412393.04942116124 82478.60988423224
930949.3362512627 358057.4370197164 71611.48740394329
946791.6046467047 315597.2015489015 63119.44030978031
957841.4886923188 281718.0849095055 56343.616981901105
965824.2787731629 254164.28388767448 50832.85677753489
301511.3445777636 301511.3445777636 904534.0337332909
688247.2016116853 229415.73387056176 688247.2016116853
845154.2547285166 169030.8509457033 507092.55283710995
911322.3768657671 130188.91098082386 390566.73294247163
943456.3530497266 104828.48367219181 314485.4510165755
961074.4623271417 87370.40566610378 262111.21699831137
971665.6205775166 74743.50927519359 224230.5278255808
978492.1095801633 65232.80730534421 195698.42191603268
983135.3843426084 57831.49319662402 173494.4795898721
986430.8501372136 51917.4131651165 155752.23949534952
229415.73387056176 688247.2016116853 688247.2016116853
577350.2691896257 577350.2691896257 577350.2691896257
762492.8516630233 457495.71099781414 457495.71099781414
855186.1104941366 366508.3330689157 366508.3330689157
904534.0337332909 301511.34457776364 301511.34457776364
933007.822647968 254456.67890399127 254456.67890399127
950654.1513652698 219381.72723813922 219381.72723813922
962250.4486493763 192450.08972987527 192450.08972987527
970241.2474100944 171219.0436606049 171219.0436606049
975964.4441812768 154099.64908125426 154099.64908125426
169030.8509457033 845154.2547285166 507092.55283710995
457495.71099781414 762492.8516630233 457495.71099781414
650944.5549041193 650944.5549041193 390566.7329424717
768349.8199278325 548821.2999484517 329292.7799690711
839254.3274162825 466252.40412015683 279751.44247209415
883541.2617927487 401609.66445124935 240965.79867074965
912421.1282466755 350931.2031717982 210558.721903079
932054.6490018001 310684.88300060004 186410.92980036003
945905.3029269173 278207.4420373286 166924.4652223972
955993.7503105925 251577.3027133138 150946.3816279883