# vtk DataFile Version 3.0
Field
ASCII
DATASET RECTILINEAR_GRID
DIMENSIONS 8 1 1
X_COORDINATES 8 float
5e-10 1.5000000000000002e-09 2.5e-09 3.5000000000000003e-09 4.500000000000001e-09 5.5000000000000004e-09 6.500000000000001e-09 7.500000000000001e-09
Y_COORDINATES 1 float
5e-10
Z_COORDINATES 1 float
5e-10
POINT_DATA 8
SCALARS x-component double
LOOKUP_TABLE default
547677.67286194
-275588.46490609716
-456468.0298552544
-764965.1839874724
-756124.4896578802
-466370.4032523447
-981374.279638421
324527.8551045565
SCALARS y-component double
LOOKUP_TABLE default
-154669.55717618502
844271.8588069954
-355902.53547705576
317189.18625311664
511888.71627128194
-659795.9724192946
-165261.1258872943
-902742.4690195869
SCALARS z-component double
LOOKUP_TABLE default
-822269.1133269281
-459625.96362399025
815457.1251519392
560552.6624779319
407732.3856327203
589209.5737083053
97945.30889549656
-282378.6569301163
VECTORS field double
547677.67286194 -154669.55717618502 -822269.1133269281
-275588.46490609716 844271.8588069954 -459625.96362399025
-456468.0298552544 -355902.53547705576 815457.1251519392
-764965.1839874724 317189.18625311664 560552.6624779319
-756124.4896578802 511888.71627128194 407732.3856327203
-466370.4032523447 -659795.9724192946 589209.5737083053
-981374.279638421 -165261.1258872943 97945.30889549656
324527.8551045565 -902742.4690195869 -282378.6569301163